221
Lattice="17.309974003446687 0.0 0.0 8.654987001723343 14.99087722583305 0.0 0.0 0.0 40.0" Properties=species:S:1:pos:R:3:move_mask:L:1:momenta:R:3:forces:R:3 charge=0 spin=0 energy=-570.4957171969784 free_energy=-570.4957171969784 stress="-0.016540374606847763 -1.7187074263347313e-05 3.7676803913200274e-05 -1.7187074263347313e-05 -0.016571955755352974 0.00014459707017522305 3.7676803913200274e-05 0.00014459707017522305 -0.018982458859682083" pbc="T T T"
Au       1.44249783       0.83282651      10.00000000  F       0.00000000       0.00000000       0.00000000      -0.01272497       0.01348763      -0.60381407
Au       4.32749350       0.83282651      10.00000000  F       0.00000000       0.00000000       0.00000000      -0.01056337      -0.00537820      -0.62121743
Au       7.21248917       0.83282651      10.00000000  F       0.00000000       0.00000000       0.00000000      -0.00451795       0.00288356      -0.59387100
Au      10.09748484       0.83282651      10.00000000  F       0.00000000       0.00000000       0.00000000       0.00163573      -0.00405241      -0.61657059
Au      12.98248050       0.83282651      10.00000000  F       0.00000000       0.00000000       0.00000000       0.00055660       0.00625790      -0.60411489
Au      15.86747617       0.83282651      10.00000000  F       0.00000000       0.00000000       0.00000000       0.00355162      -0.00938651      -0.58857232
Au       2.88499567       3.33130605      10.00000000  F       0.00000000       0.00000000       0.00000000       0.00282236       0.00463732      -0.61166543
Au       5.76999133       3.33130605      10.00000000  F       0.00000000       0.00000000       0.00000000       0.00721738      -0.00432344      -0.60028768
Au       8.65498700       3.33130605      10.00000000  F       0.00000000       0.00000000       0.00000000       0.00611705       0.00545890      -0.63170230
Au      11.53998267       3.33130605      10.00000000  F       0.00000000       0.00000000       0.00000000      -0.00369776       0.00791181      -0.61589688
Au      14.42497834       3.33130605      10.00000000  F       0.00000000       0.00000000       0.00000000      -0.00117889      -0.00131551      -0.62089390
Au      17.30997400       3.33130605      10.00000000  F       0.00000000       0.00000000       0.00000000      -0.00639437      -0.00583912      -0.61831295
Au       4.32749350       5.82978559      10.00000000  F       0.00000000       0.00000000       0.00000000       0.01021502      -0.00629476      -0.61164623
Au       7.21248917       5.82978559      10.00000000  F       0.00000000       0.00000000       0.00000000      -0.00601402       0.00400549      -0.62546402
Au      10.09748484       5.82978559      10.00000000  F       0.00000000       0.00000000       0.00000000      -0.00322250      -0.00582743      -0.59949583
Au      12.98248050       5.82978559      10.00000000  F       0.00000000       0.00000000       0.00000000       0.01351508      -0.00210995      -0.62582111
Au      15.86747617       5.82978559      10.00000000  F       0.00000000       0.00000000       0.00000000       0.00687562      -0.00105138      -0.60714352
Au      18.75247184       5.82978559      10.00000000  F       0.00000000       0.00000000       0.00000000      -0.00376902      -0.00370180      -0.59773237
Au       5.76999133       8.32826513      10.00000000  F       0.00000000       0.00000000       0.00000000      -0.01426607      -0.00829180      -0.61890244
Au       8.65498700       8.32826513      10.00000000  F       0.00000000       0.00000000       0.00000000       0.00697698      -0.01148446      -0.60334474
Au      11.53998267       8.32826513      10.00000000  F       0.00000000       0.00000000       0.00000000       0.01407495      -0.00316668      -0.60514724
Au      14.42497834       8.32826513      10.00000000  F       0.00000000       0.00000000       0.00000000      -0.00060686      -0.00796018      -0.63206619
Au      17.30997400       8.32826513      10.00000000  F       0.00000000       0.00000000       0.00000000       0.00102549       0.00584791      -0.61179405
Au      20.19496967       8.32826513      10.00000000  F       0.00000000       0.00000000       0.00000000       0.00403476      -0.00090767      -0.62364680
Au       7.21248917      10.82674466      10.00000000  F       0.00000000       0.00000000       0.00000000       0.00126565      -0.00295006      -0.61590564
Au      10.09748484      10.82674466      10.00000000  F       0.00000000       0.00000000       0.00000000       0.00212974       0.00243261      -0.59542793
Au      12.98248050      10.82674466      10.00000000  F       0.00000000       0.00000000       0.00000000      -0.00534506       0.00279038      -0.61685604
Au      15.86747617      10.82674466      10.00000000  F       0.00000000       0.00000000       0.00000000      -0.00930846      -0.00424628      -0.61078620
Au      18.75247184      10.82674466      10.00000000  F       0.00000000       0.00000000       0.00000000       0.00598507       0.00099288      -0.60653609
Au      21.63746750      10.82674466      10.00000000  F       0.00000000       0.00000000       0.00000000       0.00091811      -0.00754012      -0.59397578
Au       8.65498700      13.32522420      10.00000000  F       0.00000000       0.00000000       0.00000000       0.00117310      -0.00296369      -0.63347358
Au      11.53998267      13.32522420      10.00000000  F       0.00000000       0.00000000       0.00000000      -0.00196617       0.00227100      -0.59800506
Au      14.42497834      13.32522420      10.00000000  F       0.00000000       0.00000000       0.00000000       0.00142020      -0.01419706      -0.62305814
Au      17.30997400      13.32522420      10.00000000  F       0.00000000       0.00000000       0.00000000       0.00495624       0.00280723      -0.62743080
Au      20.19496967      13.32522420      10.00000000  F       0.00000000       0.00000000       0.00000000      -0.00361679      -0.01643155      -0.59765804
Au      23.07996534      13.32522420      10.00000000  F       0.00000000       0.00000000       0.00000000       0.00442004       0.00381958      -0.63138705
Au      -0.00000000       1.66565303      12.35558910  F       0.00000000       0.00000000       0.00000000       0.22138357      -0.18515651      -0.56722236
Au       2.88499567       1.66565303      12.35558910  F       0.00000000       0.00000000       0.00000000       0.21925347      -0.14374332      -0.22680598
Au       5.76999133       1.66565303      12.35558910  F       0.00000000       0.00000000       0.00000000       0.26265997      -0.02024779      -0.02236015
Au       8.65498700       1.66565303      12.35558910  F       0.00000000       0.00000000       0.00000000      -0.14147529      -0.12770520       0.38226840
Au      11.53998267       1.66565303      12.35558910  F       0.00000000       0.00000000       0.00000000       0.04378906      -0.11376107       0.11554641
Au      14.42497834       1.66565303      12.35558910  F       0.00000000       0.00000000       0.00000000      -0.12370133      -0.17212236      -0.23516901
Au       1.44249783       4.16413256      12.35558910  F       0.00000000       0.00000000       0.00000000       0.06324820       0.31743869      -0.23816864
Au       4.32749350       4.16413256      12.35558910  F       0.00000000       0.00000000       0.00000000      -0.05609902       0.24589215      -0.07932603
Au       7.21248917       4.16413256      12.35558910  F       0.00000000       0.00000000       0.00000000      -0.21504970      -0.22245291       0.03475505
Au      10.09748484       4.16413256      12.35558910  F       0.00000000       0.00000000       0.00000000       0.13201573       0.10754502      -0.35158294
Au      12.98248050       4.16413256      12.35558910  F       0.00000000       0.00000000       0.00000000      -0.07247301       0.15041274       0.09750361
Au      15.86747617       4.16413256      12.35558910  F       0.00000000       0.00000000       0.00000000       0.12360732       0.03875317      -0.04879827
Au       2.88499567       6.66261210      12.35558910  F       0.00000000       0.00000000       0.00000000      -0.11438781       0.01865049       0.16780312
Au       5.76999133       6.66261210      12.35558910  F       0.00000000       0.00000000       0.00000000      -0.11846730      -0.07490306      -0.11544522
Au       8.65498700       6.66261210      12.35558910  F       0.00000000       0.00000000       0.00000000       0.08263319       0.27624181       0.12635337
Au      11.53998267       6.66261210      12.35558910  F       0.00000000       0.00000000       0.00000000      -0.12379911       0.13040756       0.12848119
Au      14.42497834       6.66261210      12.35558910  F       0.00000000       0.00000000       0.00000000      -0.12337382      -0.04341431       0.04780721
Au      17.30997400       6.66261210      12.35558910  F       0.00000000       0.00000000       0.00000000      -0.07761501      -0.08342224       0.18351014
Au       4.32749350       9.16109164      12.35558910  F       0.00000000       0.00000000       0.00000000       0.17070791       0.24453183      -0.70307714
Au       7.21248917       9.16109164      12.35558910  F       0.00000000       0.00000000       0.00000000       0.12530310       0.16955273       0.41350582
Au      10.09748484       9.16109164      12.35558910  F       0.00000000       0.00000000       0.00000000      -0.10943349       0.10270409       0.24380060
Au      12.98248050       9.16109164      12.35558910  F       0.00000000       0.00000000       0.00000000      -0.21496302      -0.11481428       0.05481718
Au      15.86747617       9.16109164      12.35558910  F       0.00000000       0.00000000       0.00000000       0.16715543       0.08825997       0.17217572
Au      18.75247184       9.16109164      12.35558910  F       0.00000000       0.00000000       0.00000000      -0.28413826      -0.01361543       0.00766384
Au       5.76999133      11.65957118      12.35558910  F       0.00000000       0.00000000       0.00000000      -0.07289031      -0.10548998       0.14474243
Au       8.65498700      11.65957118      12.35558910  F       0.00000000       0.00000000       0.00000000       0.11267843      -0.13944200       0.19443017
Au      11.53998267      11.65957118      12.35558910  F       0.00000000       0.00000000       0.00000000      -0.05117869      -0.08943377       0.12804653
Au      14.42497834      11.65957118      12.35558910  F       0.00000000       0.00000000       0.00000000       0.17460212       0.13372661      -0.09615929
Au      17.30997400      11.65957118      12.35558910  F       0.00000000       0.00000000       0.00000000       0.04362535      -0.05524195       0.47408062
Au      20.19496967      11.65957118      12.35558910  F       0.00000000       0.00000000       0.00000000      -0.02635263       0.37376335      -0.44157359
Au       7.21248917      14.15805071      12.35558910  F       0.00000000       0.00000000       0.00000000      -0.09760065       0.37320244      -0.21940275
Au      10.09748484      14.15805071      12.35558910  F       0.00000000       0.00000000       0.00000000       0.17492528      -0.14286326       0.07844122
Au      12.98248050      14.15805071      12.35558910  F       0.00000000       0.00000000       0.00000000      -0.07011541       0.16379504       0.05798913
Au      15.86747617      14.15805071      12.35558910  F       0.00000000       0.00000000       0.00000000       0.03737976       0.08565237       0.46789575
Au      18.75247184      14.15805071      12.35558910  F       0.00000000       0.00000000       0.00000000      -0.02123505       0.02249550       0.32623878
Au      21.63746750      14.15805071      12.35558910  F       0.00000000       0.00000000       0.00000000      -0.03758717       0.07734276       0.38179252
Au       0.11857211      -0.02544592      14.68098338  T       1.35871980      -4.66233074      -2.01807226      -0.28763318      -0.05403674       0.03609308
Au       2.84995344       0.12207761      14.76752967  T      -1.94563071       2.69883396      -2.22887500       0.44235742      -0.58968556      -0.08053658
Au       5.67485632       0.10974084      14.72838813  T      -7.28380099      -1.86124700       0.94419152       0.70817500      -0.45911315      -0.36898130
Au       8.70025017      -0.04677996      14.81251462  T       3.07362206       0.64523727      -3.61577552      -0.59177464       0.39816806      -0.21533079
Au      11.49087046       0.09226747      14.78716859  T       0.24587371      -0.23645829      -0.20011622       0.36613965      -0.02512075      -0.37051207
Au      14.35650532       0.09447604      14.78557125  T       3.06375104       5.83546546      -2.44508254      -0.39886853      -0.65009856      -0.97586805
Au       1.53786537       2.56776116      14.59398575  T       3.13205550       2.13753806       0.45944092      -0.12303961      -0.16519518       0.84913665
Au       4.44900988       2.60350892      14.63779570  T       1.55321179       0.01304421      -3.38813974      -0.66215736      -0.20601964       0.08890940
Au       7.27817296       2.51464699      14.83120219  T      -0.72904164       0.06606709      -1.02634869       0.38539401      -0.03753491      -0.53111225
Au      10.11194469       2.61132646      14.64763635  T      -1.04655818      -2.22430624       2.77235843      -0.00966196      -0.48916847       0.65863484
Au      13.05605492       2.55615405      14.67002817  T      -4.51733999      -1.92475398      -0.77284642      -0.46711889       0.10569873       0.16636388
Au      15.96262005       2.33905810      14.59976427  T      -0.26656150      -3.13654143       3.13007047      -0.06481066       0.99120051       0.89269137
Au       2.88317361       5.15569151      14.74225445  T       1.17674632       0.13382432      -2.70115998       0.14903243       0.14614315      -0.30838031
Au       5.71000969       5.06912686      14.72373075  T       0.43996823       1.24807508       5.99798897       0.08680918       0.21699955       0.10914312
Au       8.60310202       5.00570181      14.60115779  T      -0.64767677       1.66097191      -1.57350354      -0.04767802       0.47314101       1.03703511
Au      11.47787205       5.11254776      14.70301678  T      -6.85288876       0.32940908       3.08959228       0.37148526      -0.27767998      -0.43186000
Au      14.51444093       4.93010374      14.68035692  T      -3.47945546       3.38927672       1.45633681      -0.26849234       0.20302558       0.11058246
Au      17.36716533       4.89508917      14.73813762  T      -1.40008865      -1.85752462       2.64279806      -0.40724543       0.42121762       0.18121707
Au       4.26799916       7.73302189      14.64270851  T      -1.25224197       1.85005761      -3.68381865      -0.20248523      -1.75137544       0.07517996
Au       7.06577773       7.50802992      14.68470414  T      -4.03716099       0.08067651      -5.57523659       0.86967117       0.18000041       0.42027593
Au       9.94526044       7.71955962      14.78297212  T      -3.94732299      -3.41301313      -2.32237089      -0.55490112      -0.85217404      -0.56440133
Au      12.89863383       7.47170587      14.72822579  T       2.17921250      -1.08080220       2.64902670       0.12761801       0.24696533      -0.32663599
Au      15.73706734       7.51409619      14.68883192  T      -5.00720696      -3.13468609      -3.85853102       0.34095246      -0.17277105       0.13545217
Au      18.54239975       7.58646092      14.71775209  T      -4.94202858      -1.56766838      -3.77806016       0.47527239      -0.46873340       0.12078471
Au       5.69922198       9.99581050      14.76580265  T      -0.43484224      -3.79574367       3.62258411       1.02368188       0.77707487      -0.42655277
Au       8.60430004      10.20347697      14.87545370  T      -0.58471252       1.53939174       3.42329449      -0.61051166      -0.69509941      -0.46477574
Au      11.47316692      10.00208580      14.77600224  T      -1.12751952      -3.65397145      -0.22154604       0.54526395       0.46287912      -0.65196896
Au      14.33870480      10.03912642      14.63055334  T      -0.26726011       3.97659102       0.12074935       0.27871570       0.01692618       0.41927814
Au      17.23668405      10.01849138      14.85359947  T       1.41896362      -1.79738413      -0.32501327      -0.12704892       0.53291428      -0.55092961
Au      20.16732589      10.10340310      14.57800140  T       1.18210835      -0.41699634       0.55312828      -0.37949970      -0.48059362       0.66690826
Au       7.19155495      12.64720635      14.60241145  T      -0.50831914       1.29532845       0.25429204      -0.11972058      -0.61655045       0.40450487
Au      10.18276754      12.43362270      14.76105638  T       2.06403707      -1.53144391       1.60000889       0.14040704       0.78263891      -0.28280503
Au      13.01813779      12.55655814      14.64952130  T      -2.00101119       2.77251868       5.87083595      -0.18264170       0.01242371       0.38903379
Au      15.91518580      12.50788905      14.74737253  T       0.50670778       0.19053399       0.65978649      -0.34518439      -0.17815207      -0.64275634
Au      18.86726463      12.53018376      14.77093983  T       2.00227301       0.86111513       2.69084520      -0.99958885       0.25380939      -0.70791078
Au      21.60864280      12.50804613      14.73542551  T      -0.84906172      -4.38161562       4.63385865       0.56152499       0.28733605      -0.05474695
Au       1.38743230       0.82553412      17.08800650  T       3.27906317      -0.95700325       2.87058272       0.48228213      -0.48085248      -0.10601474
Au       4.32699467       0.80211720      17.09786344  T       0.90755378       3.70547146       3.93000976      -0.98321790       0.14177504       0.35179785
Au       7.01801056       0.97220881      17.12705152  T      -2.57427027      -0.90218301       2.55369582       1.80115497      -0.71637768       0.20162548
Au      10.05901772       0.86875596      17.07753139  T      -6.63929545       0.89414979      -0.56729483      -0.51012039       0.27816817       0.19057380
Au      12.93366800       0.96319540      17.10889116  T       6.36846056      -0.10665774       1.19580642      -0.16660161      -0.34624016      -0.26110792
Au      15.81559209       0.71836057      16.94823787  T      -1.74461058      -0.17461670      -3.79683181       0.61275393       0.55740774       1.07237959
Au       2.94834975       3.34634456      16.94759916  T       1.69733231      -3.41022174       0.68703358      -0.53241408      -0.61249524       0.68352592
Au       5.70892223       3.31749885      17.00872935  T       0.74387053      -0.04476836      -0.08140157       0.29712439       0.79615176       0.97389400
Au       8.79938980       3.46701905      17.22463614  T       1.05329127      -3.54632327      -0.25021887      -0.34736422      -0.16333255       0.08444948
Au      11.62651342       3.46648285      16.98263552  T      -1.50746478      -0.37777712      -1.94395716      -0.23048575      -0.21028717       0.27399963
Au      14.52003887       3.29527822      17.06318440  T       0.04917188      -3.47380348       1.00279226       0.28584036       0.13248535       0.19677228
Au      17.39047059       3.18317447      17.20086318  T      -2.62791434      -0.17209776      -2.16434648      -0.62534219       0.65891373      -0.17003013
Au       4.22219018       5.76241826      17.22675682  T      -2.85925822      -2.50696390       2.01886562       1.13730979       0.13684984      -0.51243639
Au       7.11826263       5.77448555      17.11157628  T      -5.76245226      -1.76247304       2.29818036       0.40573302       0.00877570       0.02487759
Au      10.25588834       5.93918359      16.97592920  T      -2.20198035      -1.38501539      -0.78803065      -0.78826213      -0.20987689       0.62561673
Au      13.12668911       5.93627527      17.06100693  T      -0.63140320      -0.68042374       0.81106743      -0.65362740      -0.11392428       0.23533101
Au      15.82251033       5.79450028      17.04102138  T       1.27656742       1.46327809       6.07290206       0.98524624       0.14125648       0.40912813
Au      18.74152709       5.74850151      17.08557440  T       2.89168163       1.81526463       4.80344522      -0.85378909       0.37012735       0.01487549
Au       5.75832317       8.22302477      17.13508897  T       1.69385010      -4.87509760       0.13764432      -0.12104931      -0.25656489       0.35727021
Au       8.49276487       8.45119856      17.22932179  T       0.87834641       0.09132263       3.30253867       0.04642509      -0.32977441      -0.86834943
Au      11.42607236       8.42304317      16.97799557  T      -2.58507752       2.01107828      -0.06748358       0.73100537      -0.20440556       1.18681133
Au      14.42351764       8.43351630      16.98629306  T      -2.20102986       1.76945775      -3.65072647      -0.30183035      -0.54373425       0.60337311
Au      17.25447066       8.50886760      17.13979131  T       0.78582694       1.09795589      -1.47241275       0.44514224      -0.97414643       0.15048748
Au      20.23353651       8.28361779      16.88636091  T       0.76693986       0.15572664       2.39877007      -0.83887535       0.06408935       0.75413203
Au       7.05151110      10.95903438      17.11953411  T       1.41279833       3.09679095      -0.87355578       1.10074341      -0.71696615       0.07389931
Au      10.06692104      10.84038712      17.21642588  T      -0.41597345      -1.38123745       2.41733009       0.15394449       0.25669187       0.24416438
Au      13.03567236      10.88567312      17.06615171  T       2.24945364       1.17284796       1.09865340      -0.52914339      -0.16949472       0.15409721
Au      15.76333847      10.78418750      17.31364543  T       3.76624708      -4.18252629       1.62373099       0.44964278       0.72261161      -0.38037884
Au      18.96336605      10.91156965      17.00706929  T      -3.81452385       0.70049209       3.92830238      -0.91842359      -0.99501073       0.55789471
Au      21.71981814      10.63388064      17.10468990  T       4.38567916      -1.00479471      -0.45357671      -0.70208961       0.75408953       0.18921216
Au       8.68070222      13.24811841      16.97216067  T      -0.07810340       1.97028943       6.36386629      -0.09587132       0.33892259       0.61622351
Au      11.61871916      13.26980853      17.16347037  T      -4.22929973      -0.30509220      -1.60520381      -0.15129633       0.30717686      -0.44146800
Au      14.42318434      13.39049187      17.01025961  T       4.48301862      -0.74724105      -1.74743106      -0.03050612      -0.26147065       0.41564551
Au      17.18092915      13.09717395      17.05770118  T      -3.84722224       2.18909709       4.54287826       0.81156951       0.91369903       0.88420087
Au      20.17763293      13.31989137      17.09680486  T      -1.08050673       2.34749833       1.79083371       0.29976308       0.67483521      -0.02906064
Au      23.11023882      13.33415032      16.97541794  T      -5.28589992      -1.54308392       1.12104203      -0.67241615       0.04884772       0.63533896
Au      -0.04603460       1.36798510      19.44662529  T       0.69696067      -2.90879675       3.67230897      -0.05648556       0.67745417       0.38241076
Au       2.81333640       1.57605040      19.39044299  T       5.69811658      -0.19209285       0.85435840       0.10370854       0.32601184       0.31474507
Au       5.75512096       1.70307605      19.49515536  T      -8.05169818       3.41367515       3.69195973      -0.03001926      -0.12027632       0.35246947
Au       8.56658582       1.58104274      19.60449867  T       0.44590570       3.27179801       2.46317055       0.17773716       0.59235370      -0.22182670
Au      11.49825920       1.75594336      19.43454233  T      -0.60498729      -1.47143481       3.48191471       0.02569467      -0.02823784       0.46257034
Au      14.32828981       1.61587451      19.41753512  T      -1.16558342       1.21920450      -5.36147514       0.47155526       0.33191758       0.52594751
Au       1.35896691       4.17230502      19.51122153  T       0.27035142       2.56035024       1.97752749       0.44134483      -0.06724089       0.10455593
Au       4.35950561       4.15616944      19.61730306  T      -2.45143449       1.79534306       1.28369715      -0.36440116       0.10654082      -0.26378855
Au       7.19915941       4.24790546      19.66581244  T      -5.61760710      -2.74359982      -2.45270031       0.14594366      -0.89067131      -0.31858584
Au      10.11677735       4.13581979      19.70447340  T       2.40589287       0.02667533       0.02743515      -0.23804362       0.06736131      -0.19766180
Au      12.94601316       4.18102272      19.36989006  T      -2.93180850       0.94259126      -0.62646961       0.20236492       0.00139958       0.43108550
Au      15.82651723       4.25971744      19.67136555  T       0.79121804      -1.44465930       0.30188074      -0.09503081      -0.60898161      -0.93208557
Au       2.85263578       6.70822336      19.29881084  T      -3.72290532       0.18863466       3.55297319      -0.13553306      -0.25189304       1.14209616
Au       5.90448101       6.65155963      19.71680584  T       2.26344092       1.88395258       4.41552391      -0.63603860      -0.01602739      -0.06529678
Au       8.76824063       6.58743022      19.31130916  T      -0.81814680       0.66089084       7.10191290      -0.37953302      -0.21101917       0.43420419
Au      11.57128212       6.70926859      19.53972724  T       3.43445779       7.23273370       1.69188905       0.30364898      -0.55415863      -0.47619095
Au      14.39478762       6.67811469      19.52689952  T       0.59805485       1.46808518       0.92951362       0.13489257       0.40936565       0.08505768
Au      17.26956826       6.75748780      19.40577734  T       2.95693902       6.02897842       2.88607720      -0.08540750       0.03237507      -0.08726680
Au       4.22025156       9.10509929      19.52814387  T       1.01630713      -0.13219342       5.63092909       0.88037723      -0.09572215      -0.11381387
Au       7.12718920       9.07244272      19.60659730  T      -2.22346166       1.29010726       4.19844729       0.00142096       0.34689206       0.45104930
Au      10.03757866       9.06479044      19.42903858  T      -1.89495514      -2.27603405      -0.51912427       0.39151400       0.68642074       0.56040543
Au      12.94848034       9.12626941      19.42320912  T       0.07144884       0.38866674       3.28719998       0.29608202       0.28181651       0.12725005
Au      15.87438792       9.30084281      19.60781086  T      -1.48859769       1.42267547      -0.40237330      -0.22980677      -0.44502583       0.28853071
Au      18.76589822       9.19444837      19.40619904  T       5.36888953       0.89900443      -1.57950816      -0.28760299       0.06651314       0.02821173
Au       5.74781644      11.57341637      19.52192103  T       0.63862147       5.99823851       3.42101606      -0.29968399       0.22631481       0.60822421
Au       8.50843962      11.56215351      19.54332238  T       0.77335053       3.74114065       0.56686431       0.37904382       0.52283442      -0.10321978
Au      11.61773403      11.61638363      19.56429491  T       3.99158804       2.04122398       2.46370871      -0.49962452      -0.44963837       0.20926291
Au      14.39544001      11.80055096      19.56815923  T      -0.01227563       2.91304643       2.06734209       0.26266241      -0.65492111       0.39308873
Au      17.44706998      11.69656513      19.69730917  T       0.75222472      -1.42275152      -0.98554514      -0.37287015       0.29523396      -0.37776652
Au      20.26855325      11.66235442      19.38588306  T      -2.29529458       0.26491680       6.61497469      -0.10563412       0.20156851       0.70957321
Au       7.09711724      14.07658882      19.55052352  T       3.02539938      -0.79195709       1.24724967       0.38621521      -0.42764857      -0.29615039
Au      10.09052001      13.93094828      19.36131597  T       2.11678501      -0.19804505      -0.58569295      -0.43188217       0.35416961       0.69062895
Au      12.95821841      14.15119810      19.61837798  T       1.79079259       5.30701236       4.68838339      -0.05345009       0.55805176      -0.02813808
Au      15.84937093      14.10499516      19.41828629  T      -8.87288337      -2.33430960       5.44171477       0.29766113       0.27947691       0.25027227
Au      18.82645971      14.32686851      19.42139184  T      -0.21993537      -1.12226820       2.72973339      -0.35214546      -0.89430940       0.45142236
Au      21.61165900      14.16070900      19.30844927  T      -2.38912363       3.63914074       5.05844207       0.12531222      -0.16218419       0.80364603
Au      -0.13404612       0.14205539      22.15411547  T       1.13394728       3.98742571       3.66181503       1.03049636      -0.83967209       0.08990072
Au       2.82017975       0.16352801      22.16373603  T       2.37521965       1.92397196      -0.40634214      -0.36933082      -0.72198594      -0.01988599
Au       5.74115371      -0.09447174      22.08245239  T       1.98786768       0.47123874       2.99153520       0.39794406      -0.02190368       0.06187573
Au       8.67587988      -0.27974699      21.94336219  T      -3.04359746      -2.21999231      -1.36899716       0.43926969       0.21624906       0.18809739
Au      11.61866233      -0.04303678      22.26327117  T       0.22899139      -0.28055167       4.76898143      -0.18957305       0.08379439      -0.24670233