221
Lattice="17.309974003446687 0.0 0.0 8.654987001723343 14.99087722583305 0.0 0.0 0.0 40.0" Properties=species:S:1:pos:R:3:move_mask:L:1:momenta:R:3:forces:R:3 charge=0 spin=0 energy=-574.3037787967098 stress="-0.017945608124136925 2.177197757191607e-06 1.7861224250736996e-06 2.177197757191607e-06 -0.018002290278673172 1.5860545090617961e-06 1.7861224250736996e-06 1.5860545090617961e-06 -0.023597871884703636" free_energy=-574.3037787967098 pbc="T T T"
Au       1.44249783       0.83282651      10.00000000  F       0.00000000       0.00000000       0.00000000      -0.00094885      -0.00045359      -0.60806507
Au       4.32749350       0.83282651      10.00000000  F       0.00000000       0.00000000       0.00000000      -0.00034124      -0.00006776      -0.61012399
Au       7.21248917       0.83282651      10.00000000  F       0.00000000       0.00000000       0.00000000      -0.00002206       0.00136694      -0.60793287
Au      10.09748484       0.83282651      10.00000000  F       0.00000000       0.00000000       0.00000000      -0.00004908       0.00130012      -0.60844970
Au      12.98248050       0.83282651      10.00000000  F       0.00000000       0.00000000       0.00000000       0.00045344      -0.00001084      -0.61028159
Au      15.86747617       0.83282651      10.00000000  F       0.00000000       0.00000000       0.00000000       0.00086351      -0.00078478      -0.60835719
Au       2.88499567       3.33130605      10.00000000  F       0.00000000       0.00000000       0.00000000      -0.00007944      -0.00053449      -0.61024410
Au       5.76999133       3.33130605      10.00000000  F       0.00000000       0.00000000       0.00000000       0.00042727       0.00021915      -0.60700387
Au       8.65498700       3.33130605      10.00000000  F       0.00000000       0.00000000       0.00000000       0.00002119       0.00005140      -0.60792494
Au      11.53998267       3.33130605      10.00000000  F       0.00000000       0.00000000       0.00000000      -0.00041173       0.00041020      -0.60695404
Au      14.42497834       3.33130605      10.00000000  F       0.00000000       0.00000000       0.00000000       0.00017769      -0.00006078      -0.60999757
Au      17.30997400       3.33130605      10.00000000  F       0.00000000       0.00000000       0.00000000      -0.00015556       0.00080169      -0.60579967
Au       4.32749350       5.82978559      10.00000000  F       0.00000000       0.00000000       0.00000000       0.00142163      -0.00070044      -0.60794258
Au       7.21248917       5.82978559      10.00000000  F       0.00000000       0.00000000       0.00000000       0.00003384      -0.00007653      -0.60807705
Au      10.09748484       5.82978559      10.00000000  F       0.00000000       0.00000000       0.00000000      -0.00010210      -0.00003658      -0.60767508
Au      12.98248050       5.82978559      10.00000000  F       0.00000000       0.00000000       0.00000000      -0.00121837      -0.00078215      -0.60793775
Au      15.86747617       5.82978559      10.00000000  F       0.00000000       0.00000000       0.00000000       0.00061421       0.00037261      -0.60818732
Au      18.75247184       5.82978559      10.00000000  F       0.00000000       0.00000000       0.00000000      -0.00090120       0.00024477      -0.60839355
Au       5.76999133       8.32826513      10.00000000  F       0.00000000       0.00000000       0.00000000       0.00110303      -0.00060175      -0.60821128
Au       8.65498700       8.32826513      10.00000000  F       0.00000000       0.00000000       0.00000000       0.00015738      -0.00052370      -0.60698640
Au      11.53998267       8.32826513      10.00000000  F       0.00000000       0.00000000       0.00000000      -0.00136857      -0.00076994      -0.60802782
Au      14.42497834       8.32826513      10.00000000  F       0.00000000       0.00000000       0.00000000       0.00074859       0.00026843      -0.60778558
Au      17.30997400       8.32826513      10.00000000  F       0.00000000       0.00000000       0.00000000      -0.00022070       0.00053477      -0.60900182
Au      20.19496967       8.32826513      10.00000000  F       0.00000000       0.00000000       0.00000000      -0.00037796       0.00052764      -0.60810733
Au       7.21248917      10.82674466      10.00000000  F       0.00000000       0.00000000       0.00000000      -0.00001429       0.00038491      -0.61008930
Au      10.09748484      10.82674466      10.00000000  F       0.00000000       0.00000000       0.00000000      -0.00019284       0.00020410      -0.61025047
Au      12.98248050      10.82674466      10.00000000  F       0.00000000       0.00000000       0.00000000       0.00063054       0.00069285      -0.60798562
Au      15.86747617      10.82674466      10.00000000  F       0.00000000       0.00000000       0.00000000       0.00039090      -0.00045441      -0.60899872
Au      18.75247184      10.82674466      10.00000000  F       0.00000000       0.00000000       0.00000000      -0.00039080      -0.00027778      -0.60905105
Au      21.63746750      10.82674466      10.00000000  F       0.00000000       0.00000000       0.00000000      -0.00053291       0.00039536      -0.60854775
Au       8.65498700      13.32522420      10.00000000  F       0.00000000       0.00000000       0.00000000      -0.00010561       0.00114842      -0.60839826
Au      11.53998267      13.32522420      10.00000000  F       0.00000000       0.00000000       0.00000000       0.00077340      -0.00027624      -0.60581511
Au      14.42497834      13.32522420      10.00000000  F       0.00000000       0.00000000       0.00000000      -0.00004471      -0.00065414      -0.60843778
Au      17.30997400      13.32522420      10.00000000  F       0.00000000       0.00000000       0.00000000       0.00006469      -0.00052199      -0.60807759
Au      20.19496967      13.32522420      10.00000000  F       0.00000000       0.00000000       0.00000000       0.00024683      -0.00088378      -0.60843277
Au      23.07996534      13.32522420      10.00000000  F       0.00000000       0.00000000       0.00000000      -0.00066131      -0.00047333      -0.60599309
Au      -0.00000000       1.66565303      12.35558910  F       0.00000000       0.00000000       0.00000000       0.00024423      -0.00131698       0.09902857
Au       2.88499567       1.66565303      12.35558910  F       0.00000000       0.00000000       0.00000000       0.00141485       0.00085708       0.10012400
Au       5.76999133       1.66565303      12.35558910  F       0.00000000       0.00000000       0.00000000      -0.00331808      -0.00048600       0.09448536
Au       8.65498700       1.66565303      12.35558910  F       0.00000000       0.00000000       0.00000000      -0.00002693       0.00072241       0.09969614
Au      11.53998267       1.66565303      12.35558910  F       0.00000000       0.00000000       0.00000000       0.00233714      -0.00083656       0.09413515
Au      14.42497834       1.66565303      12.35558910  F       0.00000000       0.00000000       0.00000000      -0.00133907       0.00101873       0.10040502
Au       1.44249783       4.16413256      12.35558910  F       0.00000000       0.00000000       0.00000000       0.00119681       0.00041220       0.10119221
Au       4.32749350       4.16413256      12.35558910  F       0.00000000       0.00000000       0.00000000      -0.00206260      -0.00160355       0.09451563
Au       7.21248917       4.16413256      12.35558910  F       0.00000000       0.00000000       0.00000000       0.00052665       0.00042328       0.10388640
Au      10.09748484       4.16413256      12.35558910  F       0.00000000       0.00000000       0.00000000      -0.00059412       0.00030972       0.10340063
Au      12.98248050       4.16413256      12.35558910  F       0.00000000       0.00000000       0.00000000       0.00200223      -0.00220826       0.09433108
Au      15.86747617       4.16413256      12.35558910  F       0.00000000       0.00000000       0.00000000      -0.00164650       0.00082001       0.10017592
Au       2.88499567       6.66261210      12.35558910  F       0.00000000       0.00000000       0.00000000       0.00057522       0.00049774       0.09889119
Au       5.76999133       6.66261210      12.35558910  F       0.00000000       0.00000000       0.00000000       0.00069653      -0.00040951       0.09967528
Au       8.65498700       6.66261210      12.35558910  F       0.00000000       0.00000000       0.00000000       0.00029196      -0.00052753       0.10339062
Au      11.53998267       6.66261210      12.35558910  F       0.00000000       0.00000000       0.00000000      -0.00058718      -0.00021126       0.09969395
Au      14.42497834       6.66261210      12.35558910  F       0.00000000       0.00000000       0.00000000      -0.00054444       0.00028998       0.09887300
Au      17.30997400       6.66261210      12.35558910  F       0.00000000       0.00000000       0.00000000       0.00010090      -0.00039965       0.09857305
Au       4.32749350       9.16109164      12.35558910  F       0.00000000       0.00000000       0.00000000       0.00006918      -0.00056745       0.09886947
Au       7.21248917       9.16109164      12.35558910  F       0.00000000       0.00000000       0.00000000       0.00127408       0.00292735       0.09458239
Au      10.09748484       9.16109164      12.35558910  F       0.00000000       0.00000000       0.00000000       0.00005566       0.00249144       0.09382152
Au      12.98248050       9.16109164      12.35558910  F       0.00000000       0.00000000       0.00000000       0.00016571      -0.00091592       0.09916542
Au      15.86747617       9.16109164      12.35558910  F       0.00000000       0.00000000       0.00000000      -0.00034681      -0.00013913       0.09954122
Au      18.75247184       9.16109164      12.35558910  F       0.00000000       0.00000000       0.00000000      -0.00003251      -0.00033747       0.09975613
Au       5.76999133      11.65957118      12.35558910  F       0.00000000       0.00000000       0.00000000       0.00023449      -0.00168609       0.10053159
Au       8.65498700      11.65957118      12.35558910  F       0.00000000       0.00000000       0.00000000       0.00014765      -0.00159079       0.10027364
Au      11.53998267      11.65957118      12.35558910  F       0.00000000       0.00000000       0.00000000      -0.00019830      -0.00129897       0.10048947
Au      14.42497834      11.65957118      12.35558910  F       0.00000000       0.00000000       0.00000000      -0.00032299      -0.00015113       0.09863620
Au      17.30997400      11.65957118      12.35558910  F       0.00000000       0.00000000       0.00000000      -0.00004918      -0.00007667       0.09994210
Au      20.19496967      11.65957118      12.35558910  F       0.00000000       0.00000000       0.00000000       0.00003944       0.00019749       0.09916654
Au       7.21248917      14.15805071      12.35558910  F       0.00000000       0.00000000       0.00000000       0.00116049       0.00104048       0.09885868
Au      10.09748484      14.15805071      12.35558910  F       0.00000000       0.00000000       0.00000000      -0.00132274       0.00046613       0.09911353
Au      12.98248050      14.15805071      12.35558910  F       0.00000000       0.00000000       0.00000000       0.00142632       0.00079955       0.10100177
Au      15.86747617      14.15805071      12.35558910  F       0.00000000       0.00000000       0.00000000       0.00034024       0.00015834       0.09906657
Au      18.75247184      14.15805071      12.35558910  F       0.00000000       0.00000000       0.00000000      -0.00088264       0.00021916       0.09892405
Au      21.63746750      14.15805071      12.35558910  F       0.00000000       0.00000000       0.00000000      -0.00103194       0.00101490       0.10100718
Au       0.00000000       0.00000000      14.71117820  T      -6.79397211       1.69022310      -1.09730005       0.00018169       0.00013407      -0.02915559
Au       2.88499567       0.00000000      14.71117820  T      -0.27355944       0.11166039      -4.16965639      -0.00269684      -0.00103810      -0.03468482
Au       5.76999133       0.00000000      14.71117820  T       2.71685255       3.20903193      -3.15328906       0.00294791       0.00332792      -0.02699149
Au       8.65498700       0.00000000      14.71117820  T       2.47876810      -2.22178893       7.07302137      -0.00001801       0.00535415      -0.03060360
Au      11.53998267       0.00000000      14.71117820  T       1.58986618      -0.74540757      -5.24094694      -0.00244026       0.00296791      -0.02679504
Au      14.42497834       0.00000000      14.71117820  T      -4.87340742       2.70693796      -1.48113739       0.00247073      -0.00155198      -0.03375888
Au       1.44249783       2.49847954      14.71117820  T      -1.25503368       1.77521324       3.47399953      -0.00240144      -0.00137687      -0.03399545
Au       4.32749350       2.49847954      14.71117820  T       2.06024481      -1.27488562       0.89478943       0.00515004       0.00249196      -0.02659908
Au       7.21248917       2.49847954      14.71117820  T       0.79173221       0.55137781      -4.02888880      -0.00579485      -0.00267350      -0.04663654
Au      10.09748484       2.49847954      14.71117820  T       3.05408016      -0.63388557       1.76226226       0.00405388      -0.00342942      -0.04693655
Au      12.98248050       2.49847954      14.71117820  T       4.19718935       3.38257294      -4.47142843      -0.00508642       0.00384963      -0.02675293
Au      15.86747617       2.49847954      14.71117820  T       2.93022679      -3.47855604       3.28365412       0.00324645      -0.00112308      -0.03382162
Au       2.88499567       4.99695908      14.71117820  T      -1.89378965       5.38519005      -3.53107307       0.00363016       0.00068045      -0.02678471
Au       5.76999133       4.99695908      14.71117820  T       0.20347779      -0.18187679      -6.01883604      -0.00508919      -0.00183368      -0.04662639
Au       8.65498700       4.99695908      14.71117820  T      -2.77593769      -1.06806813      -1.13849719       0.00009888      -0.00010421      -0.02685621
Au      11.53998267       4.99695908      14.71117820  T       0.81229103       3.94824748       1.43899417       0.00463182      -0.00378719      -0.04708159
Au      14.42497834       4.99695908      14.71117820  T       2.81398655      -3.61138521      -0.64347956      -0.00374224       0.00125603      -0.02769135
Au      17.30997400       4.99695908      14.71117820  T      -2.99317269      -3.91656358      -1.34276069      -0.00000329      -0.00121026      -0.03295011
Au       4.32749350       7.49543861      14.71117820  T      -1.25208217       0.55625466      -2.02231269       0.00433893      -0.00298169      -0.03063324
Au       7.21248917       7.49543861      14.71117820  T      -1.35720295      -4.37731739       0.41360581       0.00081497       0.00544986      -0.04639175
Au      10.09748484       7.49543861      14.71117820  T      -3.98497784       2.62368742       0.54148784       0.00101860       0.00519100      -0.04859311
Au      12.98248050       7.49543861      14.71117820  T      -0.16592569      -2.70431388      -1.05742216      -0.00454777      -0.00230501      -0.03217013
Au      15.86747617       7.49543861      14.71117820  T       2.52700459      -5.98405213      -0.67565135       0.00157961      -0.00013397      -0.03295273
Au      18.75247184       7.49543861      14.71117820  T      -3.26500048       5.42931475      -2.85731725      -0.00153727      -0.00068484      -0.03153106
Au       5.76999133       9.99391815      14.71117820  T      -1.73289023      -0.71768573       1.18388252       0.00105450      -0.00426692      -0.02623953
Au       8.65498700       9.99391815      14.71117820  T      -5.79777990       0.19637631      -3.20831111       0.00039915      -0.00629106      -0.02718087
Au      11.53998267       9.99391815      14.71117820  T      -2.46022454       2.80621402       0.61305752      -0.00124541      -0.00303365      -0.02878562
Au      14.42497834       9.99391815      14.71117820  T       0.55324060       0.23510504       1.33524030      -0.00013775       0.00168728      -0.03327627
Au      17.30997400       9.99391815      14.71117820  T      -2.88486775       2.39573178       2.57646641      -0.00051189      -0.00061310      -0.03064408
Au      20.19496967       9.99391815      14.71117820  T      -0.46398128       1.02931372      -2.68909160      -0.00075557       0.00092399      -0.03055434
Au       7.21248917      12.49239769      14.71117820  T       3.69032536      -1.50967033       4.30305680       0.00010514       0.00330123      -0.03368443
Au      10.09748484      12.49239769      14.71117820  T      -0.51326765       4.36675508       1.38617659       0.00060300       0.00255731      -0.03300631
Au      12.98248050      12.49239769      14.71117820  T       0.59859423       0.00635678      -2.80020180      -0.00127101       0.00044434      -0.03215504
Au      15.86747617      12.49239769      14.71117820  T      -1.08018902       2.46295229       0.71672583      -0.00118398      -0.00112402      -0.03006825
Au      18.75247184      12.49239769      14.71117820  T      -3.76705863       2.76836825      -1.29364106       0.00094368      -0.00085309      -0.03112822
Au      21.63746750      12.49239769      14.71117820  T      -0.18711285       3.63163625      -3.85889241       0.00112757       0.00072620      -0.03187929
Au       1.44249783       0.83282651      17.06676729  T       0.32144134       2.49933387      -1.85829214       0.00114813       0.00112968       0.03204471
Au       4.32749350       0.83282651      17.06676729  T       1.19511541      -3.81083774      -0.47872969      -0.00724352      -0.00704795       0.02822045
Au       7.21248917       0.83282651      17.06676729  T      -0.61766093       1.05147874      -0.16927640       0.00542831       0.00549090       0.03709907
Au      10.09748484       0.83282651      17.06676729  T      -2.75898844       0.37693875      -2.13254370      -0.00207655       0.00469887       0.03551598
Au      12.98248050       0.83282651      17.06676729  T       0.23657891       2.04932639       1.87918064       0.00668066      -0.00585971       0.02771498
Au      15.86747617       0.83282651      17.06676729  T      -1.11947684       0.01954689       1.57390841      -0.00117811       0.00004644       0.03197216
Au       2.88499567       3.33130605      17.06676729  T       6.61781732       1.36769011      -3.02860289      -0.00806507      -0.00292503       0.02804736
Au       5.76999133       3.33130605      17.06676729  T      -5.67955175       5.46540140       6.33112515       0.02521625       0.01522544       0.05122558
Au       8.65498700       3.33130605      17.06676729  T       1.11692331       1.96964709       4.94734850      -0.00150610      -0.01804386      -0.03328216
Au      11.53998267       3.33130605      17.06676729  T       1.88126074       7.76155477      -1.15464625      -0.02652196       0.01467335       0.05137267
Au      14.42497834       3.33130605      17.06676729  T       3.57946187      -0.25327157       1.36921798       0.01049288      -0.00298443       0.02733066
Au      17.30997400       3.33130605      17.06676729  T      -1.29675237      -2.28052294       1.31114228       0.00101158      -0.00023210       0.03177484
Au       4.32749350       5.82978559      17.06676729  T       3.53462914       5.67915918      -5.15136276       0.00491233      -0.00069910       0.03504609
Au       7.21248917       5.82978559      17.06676729  T       3.46084077      -3.32134686       1.70940281      -0.01478060       0.00909421      -0.03156215
Au      10.09748484       5.82978559      17.06676729  T       3.95049143       0.18121361      -5.75306811       0.01670822       0.00934993      -0.02946160
Au      12.98248050       5.82978559      17.06676729  T      -2.35220649      -1.58924476      -1.96194366      -0.00774349       0.00275412       0.03929764
Au      15.86747617       5.82978559      17.06676729  T       0.10458406      -0.10017106      -3.48962851      -0.00021488      -0.00030380       0.03393934
Au      18.75247184       5.82978559      17.06676729  T      -2.68589701       3.58333730       3.91346421      -0.00236911      -0.00102298       0.03234491
Au       5.76999133       8.32826513      17.06676729  T      -5.56232693       0.69029129       3.66722694       0.00139099      -0.00773969       0.03743214
Au       8.65498700       8.32826513      17.06676729  T      -0.07319650      -1.65207880       3.74846704       0.00010975      -0.03066140       0.05097529
Au      11.53998267       8.32826513      17.06676729  T      -1.97165177       2.48357699       0.34891577      -0.00368322      -0.00393735       0.03508555
Au      14.42497834       8.32826513      17.06676729  T       7.46307623       2.33593355      -0.73002372       0.00024631       0.00084284       0.03083028
Au      17.30997400       8.32826513      17.06676729  T       2.60985362       2.92891937       2.49324517      -0.00054899      -0.00068482       0.03211009
Au      20.19496967       8.32826513      17.06676729  T       1.56550182      -5.87636818      -2.43181693      -0.00032923      -0.00020745       0.03083538
Au       7.21248917      10.82674466      17.06676729  T       3.42484919       2.40024513      -1.55083666      -0.00249016       0.00939510       0.02821515
Au      10.09748484      10.82674466      17.06676729  T      -1.04772049      -1.72840599       0.51160168       0.00182078       0.00691261       0.02911711
Au      12.98248050      10.82674466      17.06676729  T      -3.99422368      -4.09817262       1.03648221       0.00009904       0.00027417       0.03539365
Au      15.86747617      10.82674466      17.06676729  T      -1.97022595       0.83696742       4.30890204      -0.00031040       0.00028909       0.03261169
Au      18.75247184      10.82674466      17.06676729  T       0.99446700      -2.18276189      -0.75258003       0.00076285       0.00041088       0.03218065
Au      21.63746750      10.82674466      17.06676729  T       0.07603838       2.15015263      -0.80950425       0.00032133       0.00111563       0.03165367
Au       8.65498700      13.32522420      17.06676729  T      -5.40278763      -1.85176495       0.81882155       0.00073873      -0.00114185       0.03152063
Au      11.53998267      13.32522420      17.06676729  T       2.04723963       2.44579287       2.26020011       0.00095268       0.00166389       0.03123607
Au      14.42497834      13.32522420      17.06676729  T      -4.45023570       1.60638925      -6.29147658      -0.00119522       0.00189392       0.03002520
Au      17.30997400      13.32522420      17.06676729  T       0.89016156      -3.43043004       1.64653408       0.00033653       0.00008805       0.03067274
Au      20.19496967      13.32522420      17.06676729  T       1.36057773      -1.99272265      -1.51019682       0.00196898      -0.00112260       0.03128496
Au      23.07996534      13.32522420      17.06676729  T      -0.34640691       2.62885672      -1.97109083      -0.00032648      -0.00069172       0.03266710
Au      -0.00000000       1.66565303      19.42235639  T      -2.51759029      -3.92221982       2.01948291       0.00184642       0.00096843      -0.09973740
Au       2.88499567       1.66565303      19.42235639  T      -3.20695538      -5.42432535       1.22702579      -0.00357085      -0.00277876      -0.10057965
Au       5.76999133       1.66565303      19.42235639  T       2.34450870       2.21656106      -5.59782886      -0.01295155      -0.00059423      -0.11753836
Au       8.65498700       1.66565303      19.42235639  T       3.76449792       0.79606151      -0.33936792       0.00037539       0.00436883      -0.08777986
Au      11.53998267       1.66565303      19.42235639  T      -2.66163663      -0.43807381       4.30079574       0.01328957       0.00141563      -0.11586790
Au      14.42497834       1.66565303      19.42235639  T      -1.67636454      -2.48278372       0.43055633       0.00483667      -0.00016182      -0.09929495
Au       1.44249783       4.16413256      19.42235639  T       3.35425887      -0.12187732      -3.47200679       0.00153313      -0.00086335      -0.09920276
Au       4.32749350       4.16413256      19.42235639  T       5.15584447      -0.79813818      -1.66884236      -0.00675719      -0.01194373      -0.11740308
Au       7.21248917       4.16413256      19.42235639  T       0.74559249      -0.29993481      -3.33503141       0.11621071       0.06468519      -0.00837623
Au      10.09748484       4.16413256      19.42235639  T      -5.06115155      -3.83962754       2.68273245      -0.11639383       0.06876196      -0.00889345
Au      12.98248050       4.16413256      19.42235639  T      -0.54072923      -0.30756272       1.46999728       0.00575240      -0.01427525      -0.12769812
Au      15.86747617       4.16413256      19.42235639  T      -1.79398663      -0.22138854       1.24309205       0.00153576      -0.00051732      -0.10180265
Au       2.88499567       6.66261210      19.42235639  T      -0.92181398      -4.82773669      -2.87999710      -0.00765458       0.00039441      -0.10336671
Au       5.76999133       6.66261210      19.42235639  T       3.53535418      -1.41396717      -1.55903662       0.00405977      -0.00291856      -0.08825191
Au       8.65498700       6.66261210      19.42235639  T       2.64567429       2.26306987      -3.16480824      -0.00300271      -0.13404024      -0.00877456
Au      11.53998267       6.66261210      19.42235639  T      -1.64986819      -4.35548983       4.04341340      -0.00697934      -0.00258484      -0.10467292
Au      14.42497834       6.66261210      19.42235639  T      -2.72345189       4.04431979       2.09037020       0.00644594      -0.00048868      -0.11779726
Au      17.30997400       6.66261210      19.42235639  T      -2.39594240      -1.37708743       0.38573840       0.00004888      -0.00297913      -0.09921455
Au       4.32749350       9.16109164      19.42235639  T       2.13621686       1.61459697      -1.14022636      -0.00289401       0.00420739      -0.10281815
Au       7.21248917       9.16109164      19.42235639  T       1.13438635      -1.33249031       3.43190619       0.00562298       0.01080571      -0.11611477
Au      10.09748484       9.16109164      19.42235639  T       1.15555875      -2.47347215      -1.09657688      -0.00780563       0.01176539      -0.11719745
Au      12.98248050       9.16109164      19.42235639  T       0.54045545      -4.37970991       4.10401385       0.00508450       0.00518181      -0.12099380
Au      15.86747617       9.16109164      19.42235639  T       1.54459726      -1.46310244      -0.05505896       0.00035777       0.00044970      -0.10127760
Au      18.75247184       9.16109164      19.42235639  T      -4.49857564      -5.17248111      -0.40268399       0.00103793      -0.00063568      -0.09877458
Au       5.76999133      11.65957118      19.42235639  T      -0.94766589      -3.53010361      -1.07029332       0.00005055       0.00023093      -0.10012235
Au       8.65498700      11.65957118      19.42235639  T      -3.11042553       2.40541288      -4.28032326      -0.00000961       0.00482126      -0.09998913
Au      11.53998267      11.65957118      19.42235639  T      -6.12492095      -3.63771933      -0.11711366      -0.00032201       0.00395964      -0.10448704
Au      14.42497834      11.65957118      19.42235639  T       0.16805897     -10.21044457       1.54193315       0.00058319       0.00499298      -0.10534000
Au      17.30997400      11.65957118      19.42235639  T       3.45739457       3.27197721      -1.44772321      -0.00147986       0.00088491      -0.09932756
Au      20.19496967      11.65957118      19.42235639  T       1.59770111       2.48371200       0.05484040       0.00114496      -0.00000020      -0.09975062
Au       7.21248917      14.15805071      19.42235639  T       5.72191524      -0.29955961       1.11263622      -0.00107338      -0.00017541      -0.09930585
Au      10.09748484      14.15805071      19.42235639  T      -3.19013861      -0.83969219      -0.62735531       0.00088195      -0.00107845      -0.09902004
Au      12.98248050      14.15805071      19.42235639  T      -7.27135029      -2.87803545       2.13829950       0.00017628      -0.00055220      -0.09895405
Au      15.86747617      14.15805071      19.42235639  T       0.77595815       1.58870786      -2.85447497      -0.00314690      -0.00385390      -0.10313119
Au      18.75247184      14.15805071      19.42235639  T       5.44369603       5.61866817       0.41531462       0.00358322      -0.00721122      -0.10374837
Au      21.63746750      14.15805071      19.42235639  T      -0.63987260      -2.86958964       0.60930906      -0.00028587      -0.00027686      -0.09888357
Au       0.00000000       0.00000000      21.77794549  T       2.48766171      -2.34104332       1.40161644      -0.00017139      -0.00023683       0.60919034
Au       2.88499567       0.00000000      21.77794549  T      -2.26623729       1.15093894      -2.71734770       0.00070566      -0.00209852       0.60714334
Au       5.76999133       0.00000000      21.77794549  T       1.51502108      -0.65469222       0.31843586      -0.00141714       0.00006559       0.61573005
Au       8.65498700       0.00000000      21.77794549  T       6.52960754      -7.46780778       0.82660470      -0.00127282      -0.00125760       0.62117261
Au      11.53998267       0.00000000      21.77794549  T      -1.03532750      -4.09830662       2.44953906       0.00045945      -0.00214387       0.61609358