216
Lattice="17.30233725020987 0.0 0.0 0.0 14.984263603527534 0.0 0.0 0.0 40.0" Properties=species:S:1:pos:R:3:move_mask:L:1:momenta:R:3:energies:R:1:forces:R:3 energy=27.03716144707623 free_energy=27.03716144707623 stress="0.005664229560301573 0.0001571737510873064 8.662736814299433e-05 0.0001571737510873064 0.006202629058671652 -3.1648800327287535e-05 8.662736814299433e-05 -3.1648800327287535e-05 0.004102024311474733" pbc="T T T"
Au       4.32558431       4.16229545       7.35454987  F       0.00000000       0.00000000       0.00000000       0.00767122       0.07835417      -0.06505796      -0.25665215
Au      17.26161856       4.86251810       9.71452005  T      -1.53741506       2.18068603       0.54254019       0.05920164       0.49518648       0.86993478       0.11689441
Au       7.20930719      14.15180451       7.35454987  F       0.00000000       0.00000000       0.00000000       0.01108662       0.12326954       0.18442988      -0.49985771
Au      20.18606013      11.65442725       7.35454987  F       0.00000000       0.00000000       0.00000000       0.00933502      -0.14237596       0.04174174      -0.47076878
Au       5.81786665       4.93946375       9.69885571  T      -3.36328222      -0.67000493       4.68898831       0.03641924      -0.22320655       0.31164365       0.00694148
Au       2.76727053       4.99329346       9.54229270  T      -4.78096629       2.05992914       2.96842931       0.05458502       0.48931451      -0.08175337       0.67905246
Au      15.84420952       2.59847478       9.73766862  T       5.36467502      -0.36667315      -4.43639593       0.06886625      -0.06404681      -1.07598529      -0.02078437
Au      12.95174541       2.63783631       9.71353908  T       2.81610453       2.92997055      -4.24276514       0.02292231       0.06624860      -0.34839174       0.13597395
Au      10.12508235       2.54474289       9.76838064  T      -0.51380265      -0.89383094       1.69180396       0.03440397      -0.15601200      -0.45661107      -0.08462907
Au       7.22823459       2.55321060       9.61946313  T       3.68120544      -3.37844345      -7.67380529       0.03477682       0.02247192      -0.28291403       0.48434473
Au       4.40993618       2.32211404       9.69775616  T       4.66808792      -0.10562517       0.58922305       0.05447140       0.02876414       0.84213675       0.21099625
Au       1.39823275       2.41541176       9.82827471  T       2.02201554       2.00794651       3.70186710       0.04035654      -0.03178201       0.12788231      -0.74859865
Au      14.46146744      -0.01520851       9.70070867  T       0.00600704       4.09730179       0.75030500       0.04653641       0.51685391       0.58551420      -0.12215481
Au      11.68070601       0.13471305       9.66873812  T       1.05088752       1.81046939      -0.42552385       0.05190146      -0.66386327      -0.03841180       0.18639317
Au      15.81150635      12.54051141      16.95144732  T      -3.84195634       0.43798750       2.48578500       0.27480463       0.45405368       0.62090923      -0.30105366
Au      13.08371629      12.50601662      16.95257040  T       1.88970137       2.03023234       3.29398474       0.26352041      -0.44297933       0.11488356      -0.30906011
Au      10.18437964      12.37289055      16.73073229  T       2.69258782       3.55657459      -6.14394087       0.25546651       0.08586972       0.37118157       0.32867548
Au       7.26050211      12.63970689      16.72987097  T       7.52474277      -2.15585552      -1.35445688       0.26165370      -0.20240391      -0.22757333      -0.17446032
Au      20.11970456       9.85314621      16.95175590  T      -0.90981387      -0.87934960       4.07203774       0.31880026       0.17283704       0.29314305      -0.57628242
Au      17.06722162       9.97529405      16.90438950  T       0.25716039      -1.31862962      -2.93090849       0.31416332       1.43623077      -0.06424434      -0.12501862
Au      14.57849778      10.25397063      16.68982804  T      -0.32635345       3.47046710       2.49924324       0.33460144      -1.41225554      -0.73718750      -0.17709699
Au      11.74396863      10.00672111      17.00930358  T       0.11455027       3.21411492      -0.49470337       0.30065214      -0.10374408      -0.08734999      -0.30629625
Au       8.54896116      10.15600890      16.87915624  T      -3.51531743      -0.92743775      -1.99095131       0.27433988       0.18265952      -0.20244168      -0.15603145
Au       5.75386490      10.12394240      16.58373658  T      -1.38192328       1.91012752       3.63195017       0.27185265      -0.37234916      -0.06388655       0.62659583
Au       4.28011558       7.48342263       9.61081552  T       0.20816231       3.24772983       2.75164482       0.04254575       0.19897904      -0.07235621       0.43150711
Au      18.82493041      12.55639457       9.81333205  T      -0.83330027       6.03328195      -3.10030224       0.05868268       0.22846013      -0.09191085      -0.53083623
Au       7.40555267       7.64303056       9.80887954  T       2.25772034      -3.08590706      -0.97862957       0.05245475      -0.64251305      -0.39572936      -0.49736689
Au      12.90822496       7.67877766       9.68183152  T      -5.24037358      -6.99919923       2.25674541       0.06217978       0.48345811      -0.63247761       0.09136549
Au      13.02977157      12.74394920       9.83632368  T       0.31801939      -0.59512879      -2.98761598       0.07548022      -0.23996010      -0.78720069      -0.51760882
Au      10.14859756      12.59944094       9.76929625  T       4.37256228      -6.38334535       3.45716402       0.02546885      -0.09908756       0.07571920      -0.10887328
Au       7.15611464      12.58781355       9.61299253  T      -2.13537379      -0.35474519      -6.13680591       0.07320655       0.44856159      -0.88139262       0.37350537
Au      20.24971910       9.98466920       9.61431682  T      -1.27421761       0.30671120       3.04632991       0.03084108      -0.21720198       0.04703063       0.38835618
Au      17.33777710      10.07392054       9.72328850  T      -2.23459693       4.26294946       5.19126856       0.02880583       0.45807357      -0.60571662      -0.30060072
Au      14.49601911      10.21732460       9.59013412  T      -1.30977384       1.64729348      -3.67213188       0.04111028      -0.15689816      -0.54390012       0.25121059
Au      11.62698786      10.05413329       9.72804611  T       5.07032068       0.95302332       8.46113388       0.05706783      -0.54814777       0.47544110      -0.41908292
Au       8.62613127      10.14587584       9.69847089  T       2.10791452       1.59926832       7.28591789       0.02787482       0.44623026      -0.07631086      -0.20275894
Au      11.62855161       3.67508518      12.12159493  T      -0.36690390       4.46380817      -2.55351202       0.10660111      -0.57240773      -0.91015056      -0.39470889
Au       8.71611214       3.26721564      12.07711772  T      -1.16843693      -1.41685683       1.96979356       0.03825774      -0.30250688       0.29041425       0.06219745
Au      16.04021528       7.46299063      16.72528399  T      -0.68030761       3.88580814       6.24355917       0.26840001      -0.41771069       0.02902679      -0.03306475
Au      13.01543884       7.38316330      16.76466194  T       8.66894065       1.67650613      -1.38693988       0.28276028       0.23268716       0.23278001      -0.18077395
Au      10.35463440       7.63164076      16.78227671  T      -1.81804396       0.64510609      -0.20974925       0.27510430      -0.29096378      -0.27374471       0.09641585
Au       7.43820791       7.52368188      16.66743347  T       2.37035041      -4.28653128       4.88540963       0.27997335      -0.36207946       0.04696213       1.09770009
Au       4.43851504       7.35799478      16.64665952  T      -0.80244370      -0.24815962      -8.43297140       0.31316418      -0.65250078       0.45901565       0.72453324
Au      17.55108803       5.16424203      16.87788847  T      -2.28852879       2.73199082      -5.18699353       0.29134802      -0.31026713      -0.65118139       0.31222900
Au      14.30205568       5.04504271      16.98617722  T      -1.80146911       1.10212589      -3.74188342       0.32287448       0.37848975      -0.11681048      -0.45672787
Au      11.43491101       4.92390875      16.83101127  T       0.99745455       2.46524937       7.51819744       0.27313360       0.49782228       0.89320677      -0.03458981
Au       8.77600592       5.04468094      16.92095164  T      -2.19251669      -1.89905340       4.46824005       0.29704070      -0.53194434       0.04799573      -0.45443818
Au       5.86332914       4.97667914      16.66502566  T       3.09236723       1.72629073      -3.55439173       0.27253364      -0.12302442      -0.22168770       0.14698476
Au       5.79364375       9.96739380       9.72404850  T      -1.17728788      -0.95890989       2.04715277       0.01813425      -0.11123053      -0.11414081      -0.05194644
Au      18.67085613       7.52883510       9.61894127  T      -0.04697586      -1.24272835      -3.88867292       0.03074538       0.18660702      -0.13989396       0.43817373
Au      15.88364480       7.51500581       9.68854046  T       0.99774850       4.27087687       1.70936097       0.03378388      -0.12962102      -0.04197464       0.13455728
Au      10.15599810       7.66622009       9.67154108  T      -2.13297553      -1.58966803      -3.03236116       0.03854519      -0.06844399      -0.47173932       0.01498691
Au      16.15328196      12.53335417       9.67330418  T      -0.34799975      -2.59847470      -4.28286658       0.07684312      -1.14093099       0.10502845       0.11963717
Au      21.44628959      12.27548828      16.91543462  T      -0.90891543      -1.68838495      -3.78341984       0.32238211       0.30909653       0.12762620      -0.44527236
Au       3.00463787       0.08109762       9.66876344  T       4.47055782       0.51431124       1.06043307       0.04350180      -0.58608181      -0.54062046       0.26011496
Au       2.88372288       6.65967271       7.35454987  F       0.00000000       0.00000000       0.00000000       0.01749427      -0.01692324       0.08173183      -0.55233623
Au      15.86047581       4.16229545       7.35454987  F       0.00000000       0.00000000       0.00000000       0.02723798       0.19408116      -0.13310363      -0.81104584
Au      12.97675294       4.16229545       7.35454987  F       0.00000000       0.00000000       0.00000000       0.01039250      -0.11479884       0.01737200      -0.45813998
Au      10.09303006       4.16229545       7.35454987  F       0.00000000       0.00000000       0.00000000       0.01970597       0.09868793      -0.18717427      -0.68912602
Au       7.20930719       4.16229545       7.35454987  F       0.00000000       0.00000000       0.00000000       0.01666870      -0.10963972       0.03025593      -0.59310303
Au      17.30233725      11.65442725       7.35454987  F       0.00000000       0.00000000       0.00000000       0.01288530       0.16064255      -0.02630399      -0.52420129
Au      14.41861438       8.32459089       5.00000000  F       0.00000000       0.00000000       0.00000000       0.25302982       0.00383982      -0.00559345       0.37467248
Au      12.97675294       5.82721362       5.00000000  F       0.00000000       0.00000000       0.00000000       0.25312490       0.00187742       0.00684569       0.37642867
Au      10.09303006       5.82721362       5.00000000  F       0.00000000       0.00000000       0.00000000       0.25273942       0.00016720       0.01399368       0.36325618
Au       7.20930719       5.82721362       5.00000000  F       0.00000000       0.00000000       0.00000000       0.25313432      -0.00624625       0.01598552       0.37354250
Au       7.26027563      10.83883218      11.93374356  T       0.68117746      -3.14085753      -0.15711813       0.04966909      -0.21266939       0.07922467       0.60125295
Au       4.32558431       5.82721362       5.00000000  F       0.00000000       0.00000000       0.00000000       0.25274481       0.01730604      -0.00421465       0.37571269
Au      14.41861438       3.32983636       5.00000000  F       0.00000000       0.00000000       0.00000000       0.25275810      -0.00913680      -0.01610694       0.36034899
Au      10.09303006      10.82196816       5.00000000  F       0.00000000       0.00000000       0.00000000       0.25334696       0.00954810       0.00660194       0.39353106
Au       7.20930719      10.82196816       5.00000000  F       0.00000000       0.00000000       0.00000000       0.25300998       0.00721521      -0.00669182       0.37206326
Au      20.18606013       8.32459089       5.00000000  F       0.00000000       0.00000000       0.00000000       0.25263073      -0.00193749       0.00618735       0.34480177
Au      11.53489150       8.32459089       5.00000000  F       0.00000000       0.00000000       0.00000000       0.25293904      -0.00416729      -0.00347479       0.37325378
Au       8.65116863       8.32459089       5.00000000  F       0.00000000       0.00000000       0.00000000       0.25320883      -0.00280644       0.00082045       0.38310848
Au       5.76744575       8.32459089       5.00000000  F       0.00000000       0.00000000       0.00000000       0.25323926       0.00930111      -0.01030228       0.38238095
Au      18.74419869       5.82721362       5.00000000  F       0.00000000       0.00000000       0.00000000       0.25265041      -0.00844935      -0.00142501       0.35120081
Au       4.32558431       0.83245909       5.00000000  F       0.00000000       0.00000000       0.00000000       0.25295171      -0.00388620       0.00577853       0.36807386
Au       1.44186144       0.83245909       5.00000000  F       0.00000000       0.00000000       0.00000000       0.25348102      -0.00989959      -0.00334227       0.41008875
Au       8.65116863       6.65967271       7.35454987  F       0.00000000       0.00000000       0.00000000       0.00661439      -0.01474930       0.15408554      -0.34352786
Au       5.76744575       6.65967271       7.35454987  F       0.00000000       0.00000000       0.00000000       0.01505488       0.09686468       0.00464330      -0.17576251
Au       8.39348477      -0.01578154       9.93304517  T       0.49050732      -2.81081658      -1.39861714       0.09653649       1.20505286       0.39242942      -0.13420165
Au      18.73432042      12.38461583      16.73438602  T       0.04976224      -2.41128972      -1.21021703       0.25251370      -0.33629236      -0.39072929       0.00658631
Au      17.30233725       6.65967271       7.35454987  F       0.00000000       0.00000000       0.00000000       0.00501088      -0.08745783      -0.05846621      -0.31213583
Au       0.03394098      -0.03091950       9.83634693  T      -1.12539001      -2.83655310      -0.00814626       0.03961640       0.16131091       0.30038541      -0.39732482
Au      21.62792156      14.15180451       7.35454987  F       0.00000000       0.00000000       0.00000000       0.00117089      -0.00265340       0.04668698      -0.50215228
Au      18.74419869      14.15180451       7.35454987  F       0.00000000       0.00000000       0.00000000       0.00328978      -0.04490420       0.03740750      -0.17448590
Au      15.86047581      14.15180451       7.35454987  F       0.00000000       0.00000000       0.00000000       0.00903323       0.07425434       0.09009033      -0.33778513
Au      12.97675294      14.15180451       7.35454987  F       0.00000000       0.00000000       0.00000000       0.00846476      -0.00350566      -0.01151011      -0.41226624
Au      10.09303006      14.15180451       7.35454987  F       0.00000000       0.00000000       0.00000000       0.02548350      -0.02937875       0.02169878      -0.11266529
Au      14.41861438      11.65442725       7.35454987  F       0.00000000       0.00000000       0.00000000       0.03241697      -0.03854541       0.34484297      -0.58119877
Au      11.53489150      11.65442725       7.35454987  F       0.00000000       0.00000000       0.00000000       0.01405326      -0.01474958       0.10593405      -0.16283876
Au       8.65116863      11.65442725       7.35454987  F       0.00000000       0.00000000       0.00000000       0.01184723       0.13234544       0.10908716      -0.37098483
Au       5.76744575      11.65442725       7.35454987  F       0.00000000       0.00000000       0.00000000       0.00530843       0.05420321      -0.13533325      -0.52623749
Au      18.74419869       9.15704998       7.35454987  F       0.00000000       0.00000000       0.00000000       0.00649876      -0.04769387       0.05088613      -0.41222786
Au      15.86047581       9.15704998       7.35454987  F       0.00000000       0.00000000       0.00000000       0.00347769       0.06558161      -0.05145238      -0.31376490
Au      12.97675294       9.15704998       7.35454987  F       0.00000000       0.00000000       0.00000000       0.01032269       0.00239762       0.07929228      -0.46141353
Au      10.09303006       9.15704998       7.35454987  F       0.00000000       0.00000000       0.00000000       0.00857892       0.00142944       0.15073837      -0.39418254
Au       7.20930719       9.15704998       7.35454987  F       0.00000000       0.00000000       0.00000000       0.00395087       0.01999868      -0.02893314      -0.26327111
Au       4.32558431       9.15704998       7.35454987  F       0.00000000       0.00000000       0.00000000       0.01048179       0.11890545      -0.00991963      -0.44719560
Au       2.88372288       1.66491818       7.35454987  F       0.00000000       0.00000000       0.00000000       0.00826845      -0.07407668       0.08315349      -0.33390601
Au      -0.00000000       1.66491818       7.35454987  F       0.00000000       0.00000000       0.00000000       0.00950302       0.00348419      -0.07032337      -0.15923454
Au      23.06978300      13.31934543       5.00000000  F       0.00000000       0.00000000       0.00000000       0.25265370       0.00199317       0.00193277       0.35373421
Au      20.18606013      13.31934543       5.00000000  F       0.00000000       0.00000000       0.00000000       0.25306565      -0.01386387       0.00703434       0.37617061
Au      17.30233725      13.31934543       5.00000000  F       0.00000000       0.00000000       0.00000000       0.25327869       0.00582635       0.01076372       0.39009738
Au      14.41861438       6.65967271       7.35454987  F       0.00000000       0.00000000       0.00000000       0.00918539      -0.02270026       0.10339550      -0.25952490
Au       5.77592504      -0.12507641       9.73129716  T      -6.43462740       4.70563432       3.50666169       0.09786520      -0.58988008       0.77864480      -0.03377698
Au      11.53489150       6.65967271       7.35454987  F       0.00000000       0.00000000       0.00000000       0.00397018       0.02009930       0.01990575      -0.30907042
Au      21.63895650      12.44592951       9.59275569  T       3.66049046       0.69420631      -1.06331315       0.03100959      -0.00411168      -0.07084515       0.46943560
Au       8.71199059       4.95124301       9.55931680  T       4.23467148       0.31251453      -3.30840137       0.06841270      -0.62166964       0.40849917       0.75148853
Au      11.36468051       4.98660486       9.68120300  T      -0.36494771      -0.93080815      -1.73639410       0.07026331       0.89675012       0.58917698       0.09670846
Au       7.12682225       9.17089571      14.59422552  T      -3.19695843       1.66615354       6.20191837       0.10098946       0.46108700       0.37421080      -0.92095575
Au       4.20727861       9.17293928      14.36797903  T      -2.50146716      -5.66910627      -3.71459494       0.07298751       0.43201839      -0.10748152       0.38033033
Au      17.51013756       6.51117659      14.62190285  T      -2.81171322      -0.81718648       0.28315833       0.18078638      -1.00124551       0.71878106      -0.74857165
Au      11.74822614       6.73362534      14.30744478  T       0.50878127      -0.95343849      -5.99084606       0.04559124      -0.60707343      -0.40570247       0.35834842
Au       8.71377045       6.73851868      14.58491663  T       0.67802479      -0.47694696      -4.60523491       0.10289849       0.40361743      -0.72691780      -0.77135111
Au       5.76726918       6.72912362      14.58407379  T      -0.28190430       7.72625591      -3.05887927       0.15295302       0.12157191      -0.46446882      -1.04551252
Au       2.77501883       6.89764760      14.40865744  T       3.87663482       1.66205552       0.73319149       0.11933545       0.98863352      -0.74633131       0.23697670
Au      15.83868489       4.35683216      14.60778495  T      -2.48672887      -1.90709538       2.96966562       0.03602931      -0.12527425      -0.44486652       0.20769923
Au      12.98685827       4.16268296      14.60688484  T       0.23133940       0.80654557      -5.93124255       0.05085847       0.30772583       0.61370157       0.17645391
Au      10.22412684       4.09629551      14.37585994  T       0.34116980      -1.54473759      -2.80278630       0.09424227      -0.92504441       0.92821067      -0.00269074
Au       7.23328958       4.40626680      14.40956745  T       4.82030326       3.23164120      -0.04546587       0.07886702       0.17486120      -0.71630818      -0.04553345
Au       3.99577252       4.19521230      14.35089570  T       3.54866959       6.18308996      -3.88965420       0.11114850       1.52432098       0.10686433      -0.09480474
Au       1.44925633       4.13381329      14.47480909  T      -3.01868383      -0.87380687      -2.34674717       0.11139845      -0.89781783      -0.53195581      -0.03361978
Au      14.41687090       1.79406717      14.54428197  T      -0.33498093       2.84038067      -1.73254512       0.04457230      -0.19263326      -0.09865607       0.11346305
Au      11.57187068       1.77711687      14.36796750  T       0.51144293       1.22117956      -1.01648036       0.04260865       0.24570906      -0.56495395       0.06230424
Au       8.51405667       1.67973753      14.58571563  T      -1.18838225      -0.26564855       0.59691857       0.05975692       0.48513130       0.22939313      -0.33026682
Au       5.81872018       1.60451244      14.48081029  T      -0.72349625      -0.41784093       0.97988812       0.10703762      -0.37386434       1.09544453       0.84677068
Au       2.85545221       1.61197395      14.52587532  T      -0.32812934      -0.55266322       2.68532291       0.02696420      -0.33523254       0.14850885       0.11329914
Au      -0.18345656       1.55132026      14.59259108  T       7.92258889       0.97066996      -2.20878122       0.10113584       0.26766805       1.16719234       0.03499398
Au      23.15267226      13.36513541      12.07065049  T       0.68721951      -1.29865708      -2.72849037       0.01402049      -0.17036781      -0.41692639      -0.10146663
Au      20.29847230      13.25826297      11.93362745  T      -0.16561051       1.27078947       3.51985363       0.08593617       0.10418511       0.19563492       0.63885340
Au      17.15782958      13.23265276      12.22939618  T      -2.78871952      -0.30828508      -1.46138732       0.07912490       0.55183698       0.79496144      -0.19703572
Au      12.91836184       9.13472834      14.47408225  T      -0.68310309      -0.34708857       2.05141315       0.09912387       0.33695779       0.09330530       0.03560927
Au      14.48023637      13.39115139      12.09875261  T      -4.53255688       1.50239596      -0.66246248       0.08349475      -0.49187976      -0.01031985      -0.52647634
Au      15.73964125       9.37712899      14.28857894  T       1.06544761       0.21817058       0.19609242       0.09056856       0.10017786      -0.67141770       0.30083731
Au       5.78679947      11.71709704      14.36791791  T      -0.64408812       1.83345606      -3.16739543       0.03493137       0.04176781       0.00514362       0.15130761
Au       1.44186144       4.16229545       7.35454987  F       0.00000000       0.00000000       0.00000000       0.02416413      -0.16411657      -0.20842565      -0.53010138
Au      14.41861438       1.66491818       7.35454987  F       0.00000000       0.00000000       0.00000000       0.00067728      -0.01367157       0.00878398      -0.22291443
Au      11.53489150       1.66491818       7.35454987  F       0.00000000       0.00000000       0.00000000       0.01157439      -0.01794163       0.07607790      -0.36413535
Au       8.65116863       1.66491818       7.35454987  F       0.00000000       0.00000000       0.00000000       0.01497696       0.08318087      -0.11383486      -0.19613076
Au       5.76744575       1.66491818       7.35454987  F       0.00000000       0.00000000       0.00000000       0.00561340       0.03134922      -0.07378672      -0.39306251
Au      11.53489150       3.32983636       5.00000000  F       0.00000000       0.00000000       0.00000000       0.25315196       0.00735341      -0.00873290       0.35258216
Au       8.65116863       3.32983636       5.00000000  F       0.00000000       0.00000000       0.00000000       0.25271584      -0.00148489      -0.02151052       0.35767919
Au       5.76744575       3.32983636       5.00000000  F       0.00000000       0.00000000       0.00000000       0.25294097      -0.01146045      -0.00252078       0.36190737
Au       2.88372288       3.32983636       5.00000000  F       0.00000000       0.00000000       0.00000000       0.25312056       0.00653857      -0.00301383       0.37427421
Au      15.86047581       0.83245909       5.00000000  F       0.00000000       0.00000000       0.00000000       0.25346221       0.00544441       0.00607001       0.40754826
Au      12.97675294       0.83245909       5.00000000  F       0.00000000       0.00000000       0.00000000       0.25307464       0.00530493       0.00461729       0.38422011
Au      10.09303006       0.83245909       5.00000000  F       0.00000000       0.00000000       0.00000000       0.25367976      -0.00809910      -0.01163881       0.41159116
Au       7.20930719       0.83245909       5.00000000  F       0.00000000       0.00000000       0.00000000       0.25334858       0.01076882       0.00777333       0.38064425
Au      14.41861438      13.31934543       5.00000000  F       0.00000000       0.00000000       0.00000000       0.25336038       0.00423204       0.00331118       0.37471677
Au      11.53489150      13.31934543       5.00000000  F       0.00000000       0.00000000       0.00000000       0.25340536      -0.01575728      -0.00421096       0.41230270
Au       8.65116863      13.31934543       5.00000000  F       0.00000000       0.00000000       0.00000000       0.25339337       0.01761949       0.00547929       0.39372390
Au      21.62792156      10.82196816       5.00000000  F       0.00000000       0.00000000       0.00000000       0.25272929      -0.00251628       0.00135726       0.35107136
Au      18.74419869      10.82196816       5.00000000  F       0.00000000       0.00000000       0.00000000       0.25321379      -0.00074024       0.00060811       0.35813987
Au      15.86047581      10.82196816       5.00000000  F       0.00000000       0.00000000       0.00000000       0.25279173      -0.00161778      -0.00237184       0.36936491
Au      12.97675294      10.82196816       5.00000000  F       0.00000000       0.00000000       0.00000000       0.25318265      -0.01170954       0.00934039       0.38337218
Au      14.48340922      11.85956026      14.31508914  T       2.68003456      -2.53127811       0.94300046       0.06941097      -0.69102104      -0.56840356       0.36818535
Au      11.65103776      11.40535781      14.66619267  T      -2.19667598      -0.92517731      -1.76755012       0.10328265      -0.13952416       0.78803434      -0.40162797
Au       8.82255975      11.62810236      14.54881808  T      -1.26100283       7.22115240      -1.86472398       0.05583788      -0.65748621       0.02987143      -0.20570447
Au      18.55128663       9.10021845      14.49316967  T       4.63636246       1.40521302      -1.55193770       0.04856519       0.17986994       0.73300423       0.50507698
Au      14.55145349       6.92998868      14.43125800  T      -2.09312800      -3.80130886       3.48582522       0.06011488       0.07157447      -0.70537658       0.02878357
Au       9.96260051       9.09663925      14.60093600  T       1.98051676      -3.82585977      -0.15984911       0.06737031       0.47863750       0.51005800      -0.21549416
Au       2.80975390      -0.33770934      16.66410481  T       0.20300945      -0.00304005      -3.32905665       0.28499023       0.35676256       0.75494391       0.46642673
Au       8.70358926      13.40012210      12.29843225  T      -2.17050889       3.54804632      -5.15576414       0.08002421      -0.05944277      -0.00755387      -1.00220141
Au       2.95827575       4.65201208      16.80928119  T       5.13044208       3.43860965      -0.05383350       0.31092850       0.02320005       0.61878081      -0.01277422
Au      15.85820671       2.56084675      16.97574592  T      -4.03824356       0.58460655      -2.69366276       0.32660495      -0.16138839       0.02832244      -0.59245551
Au      12.93805001       2.68493207      16.94563098  T      -1.08444388      -3.07485252       1.38105455       0.27170251       0.32160966      -0.52552250      -0.25981113
Au      10.10576913       2.66496307      16.59398984  T       2.73653079      -3.60224946      -3.08996183       0.26857471      -0.34509903      -0.92501015       0.62115103