216
Lattice="17.30233725020987 0.0 0.0 0.0 14.984263603527534 0.0 0.0 0.0 40.0" Properties=species:S:1:pos:R:3:move_mask:L:1:momenta:R:3:forces:R:3:energies:R:1 energy=24.95440519118869 stress="0.009784247147934048 -2.9139787095389672e-05 -3.1420714134008677e-05 -2.9139787095389672e-05 0.009959956012525728 0.00014680217477965523 -3.1420714134008677e-05 0.00014680217477965523 0.0071824650790000815" free_energy=24.95440519118869 pbc="T T T"
Au       4.32558431       4.16229545       7.35454987  F       0.00000000       0.00000000       0.00000000      -0.05680880       0.19892764      -0.93133556       0.02791282
Au      17.18519354       5.11777803       9.67126605  T      -0.73214704       1.96397962       1.60651265       0.27795483      -0.65742425      -0.07450841       0.04817031
Au       7.20930719      14.15180451       7.35454987  F       0.00000000       0.00000000       0.00000000       0.02510251      -0.05998195      -0.21171807       0.00120232
Au      20.18606013      11.65442725       7.35454987  F       0.00000000       0.00000000       0.00000000      -0.02642732      -0.02950134      -0.19135420       0.00922622
Au       5.71572754       5.01071620       9.60577367  T      -1.68379582      -0.46686682      -1.40649889       0.60877111      -0.00246464       0.18289767       0.03571700
Au       2.91399935       4.82435735       9.66017398  T      -2.57584848       2.17563211       0.45615087      -0.42998200       0.64469534       0.19942321       0.02985906
Au      15.78732448       2.42240613       9.59856908  T       2.22236683       1.11844609       1.76634394       0.17457530       0.27832596       0.40225464       0.03780145
Au      12.93419227       2.47753371       9.72583046  T       0.95785153      -3.45653947       1.25070778       0.02841170       0.13901988       0.05698851       0.03067912
Au      10.02944989       2.42232349       9.63746167  T       4.13525032       3.00092574      -1.47384626       0.45572943       0.64378497       0.25311126       0.04001462
Au       7.17067189       2.38717161       9.61969162  T       0.21681573      -2.09163901       3.73874295       0.48786832       0.68584158       0.37214033       0.04852616
Au       4.39114105       2.52809915       9.50967307  T      -0.81475143       5.47830923      -1.21000594      -0.52010755      -0.42114384       0.87645864       0.07932910
Au       1.45540053       2.42975434       9.71353498  T       2.13598604      -2.78788770      -5.24637039      -0.12892433       0.07031169       0.10853904       0.03040478
Au      14.31699753      -0.02690609       9.88314986  T       0.00262893       1.13267744      -4.69225093       0.04279443       0.28366812      -1.04085412       0.07325948
Au      11.50681332      -0.10716427       9.69950117  T      -1.62357740      -2.34513816      -1.85270289       0.34998283       0.81348098      -0.03288489       0.04948566
Au      15.94764849      12.64387778      16.75282881  T       4.16601780       0.00081872      -1.45346507      -0.10270053      -0.43894335      -0.10043673       0.29690353
Au      13.06642342      12.43795694      16.76829974  T      -1.89475508      -2.69276281       0.20669030      -0.07171692      -0.03764804      -0.34138995       0.26727879
Au      10.11668885      12.41048230      16.78656569  T      -2.59597347      -2.47994166       1.99907233      -0.03078009       0.05690125      -0.24744001       0.26823691
Au       7.11644077      12.49763105      16.86953694  T      -1.79074081      -0.52909445      -0.42825213       0.23115849      -0.04481920      -0.39348409       0.28845007
Au      20.14031733       9.88376780      16.89446860  T       3.40167129       5.09160485      -5.43384464       0.05588099      -0.16111162      -0.43517196       0.26085571
Au      17.36519397       9.81519256      16.92842041  T      -3.13033771      -1.60527739      -3.94465376       0.11644438       0.25305738      -0.44006537       0.32798219
Au      14.42185283       9.92299160      16.84865487  T       1.37146122      -2.38461660      -3.58512497      -0.00314501       0.26634169      -0.25915706       0.26906113
Au      11.64073613       9.86691288      16.85618984  T       0.85939102      -1.85735856      -0.31387910      -0.20742447       0.18738201      -0.52523493       0.28109874
Au       8.67666112      10.04887040      16.87716934  T      -0.32592064       0.87660300       2.41084816      -0.02334778      -0.10347810      -0.64761753       0.32700738
Au       5.74795457       9.97043827      16.89359573  T       0.35208854       2.57236364      -2.14849275       0.10733743      -0.05046923      -0.53392122       0.28014270
Au       4.42816448       7.44325624       9.68749816  T       4.75020534      -5.50988906      -2.34501762      -0.61856865       0.29429915      -0.28024419       0.03763546
Au      18.76225178      12.45503861       9.76987935  T       6.73066214      -3.01391196      -1.41243091       0.03494796       0.02138167      -0.24900103       0.02408990
Au       7.18566441       7.54288366       9.85286997  T      -2.57105111       2.09420065       2.53109180       0.14367552       0.13378025      -0.98732494       0.05419233
Au      12.87777211       7.53805596       9.63649833  T      -0.01432918       1.80789749      -2.84894734       0.26820814       0.17505385       0.20999095       0.03240403
Au      12.88630425      12.47531186       9.66669040  T      -0.08645565       2.73750228       0.33249671       0.38968898       0.08549487       0.20080073       0.02588746
Au      10.06073266      12.53442937       9.61397980  T      -0.55331179       6.75810533      -5.38045633       0.07135539      -0.08210173       0.33651735       0.04408856
Au       7.26634796      12.48132096       9.79401225  T       0.46877047      -3.16519904      -1.61418509      -0.11205506       0.62929141      -0.19459877       0.02405786
Au      20.22666283       9.90073640       9.71606763  T      -0.23178291      -0.37088699       1.85470101       0.08438269       0.20729455      -0.18374767       0.02652075
Au      17.22210787       9.92765666       9.74255461  T       4.91840551       0.35304190      -7.12168323       0.32121778       0.17225145      -0.01704113       0.01979768
Au      14.30972214      10.08426478       9.87746955  T       1.47084979       1.44832016      -1.60407054       0.17623247      -0.36139870      -0.45816065       0.02756952
Au      11.51921037      10.08188687       9.76332089  T       0.28028869       0.22891099      -4.80087154       0.03407236      -0.42760365      -0.28261078       0.02606865
Au       8.73864078      10.11959969       9.64314868  T       1.55968371      -0.65276025      -0.51850447      -0.33466204      -0.55730539       0.23674760       0.03762106
Au      11.55345267       3.35009267      12.03322635  T       0.23742851      -3.41103156       6.96160060      -0.06013295       0.16042075       0.02814151       0.03578892
Au       8.64714869       3.31676048      11.94634874  T      -1.05660405      -3.66937889      -0.72319673      -0.02995117       0.25692441      -0.01781071       0.03970634
Au      15.91162324       7.58442470      16.50641056  T       0.20843653      -0.19225974      -0.41884114       0.14744166      -0.68859468       0.52090175       0.23617666
Au      13.09614716       7.45612649      16.62428126  T      -2.78686386      -1.42910277      -1.47089942      -0.27723070       0.00269638       0.15239318       0.22089020
Au      10.12048507       7.58493489      16.82886972  T       2.02636043       1.56140114       0.51303465      -0.05707711      -0.11781633      -0.52537522       0.30380154
Au       7.18421446       7.48940423      16.94462648  T       0.02725985       1.33200389      -1.10084284       0.26452412       0.56946682      -0.53645088       0.32158227
Au       4.37934349       7.56444079      16.96802356  T      -3.30141706      -4.76073067      -1.15848121      -0.14498348      -0.14199447      -0.54589220       0.30961064
Au      17.21433444       4.94514835      17.14775331  T       4.17168384       1.44148333       4.99280082       0.11997166       0.07494245      -0.84086635       0.44123863
Au      14.33697362       4.96546397      16.88211600  T       4.70477132      -0.48105983       1.04248842       0.14798983      -0.05800159      -0.45269786       0.27595919
Au      11.56507721       5.01382132      16.95931760  T       0.02425523      -0.35342970      -3.62422697      -0.06425109      -0.04355423      -0.64643136       0.35365859
Au       8.63635972       5.08387934      16.80226127  T      -2.22830623       2.16660749       4.24246330       0.69708086      -0.17837248      -0.35900546       0.29223566
Au       6.05359946       5.13761980      16.91383616  T       0.00833460      -3.25956432       0.52075339      -0.94285285      -0.42149131      -0.29481183       0.37463985
Au       5.92205318      10.13838165       9.76490784  T      -0.95423797      -3.50407118      -0.92543154      -0.39522208      -0.50056519      -0.51026907       0.04341694
Au      18.83273277       7.47156296       9.71627831  T       2.07956670      -0.47936509       1.89211999      -0.13513762       0.14313933      -0.11459964       0.02612180
Au      15.90258038       7.53403585       9.63548100  T       0.12965837      -4.24717380      -2.10409587      -0.32682840       0.04938178       0.32411542       0.03303549
Au       9.99243242       7.56683318       9.88503460  T      -4.12544835       1.14780484      -0.55182395       0.36016783       0.39563625      -0.72318474       0.05005115
Au      15.83107477      12.40274089       9.61407889  T       2.57203095       0.63077650       2.51743964       0.22272352       0.31949140       0.25303852       0.02614945
Au      21.47314354      12.36120263      16.91364686  T      -2.52273975      -2.82285353      -1.83175166       0.69048069       0.02640619      -0.09053849       0.25878994
Au       2.96188429      -0.07137144       9.83432365  T       3.21015103      -0.70413856      -0.12434672      -0.43301383       0.46157613      -0.27467512       0.03223836
Au       2.88372288       6.65967271       7.35454987  F       0.00000000       0.00000000       0.00000000       0.00988565       0.00468114      -0.26128382       0.00312418
Au      15.86047581       4.16229545       7.35454987  F       0.00000000       0.00000000       0.00000000      -0.09782897       0.03764090      -0.24956555       0.01396711
Au      12.97675294       4.16229545       7.35454987  F       0.00000000       0.00000000       0.00000000       0.00071657      -0.01307369      -0.14981503       0.00668696
Au      10.09303006       4.16229545       7.35454987  F       0.00000000       0.00000000       0.00000000       0.05683885      -0.02592959      -0.38706170       0.00711109
Au       7.20930719       4.16229545       7.35454987  F       0.00000000       0.00000000       0.00000000       0.07720484       0.00955529      -0.38308378       0.00112684
Au      17.30233725      11.65442725       7.35454987  F       0.00000000       0.00000000       0.00000000       0.10942510      -0.03955698      -0.27036223       0.01115178
Au      14.41861438       8.32459089       5.00000000  F       0.00000000       0.00000000       0.00000000      -0.00205944       0.00446810       0.38969504       0.25324298
Au      12.97675294       5.82721362       5.00000000  F       0.00000000       0.00000000       0.00000000       0.00022360      -0.00764781       0.38781039       0.25305764
Au      10.09303006       5.82721362       5.00000000  F       0.00000000       0.00000000       0.00000000       0.00080567       0.00123813       0.37150075       0.25298413
Au       7.20930719       5.82721362       5.00000000  F       0.00000000       0.00000000       0.00000000       0.00171245      -0.00036484       0.36904115       0.25296585
Au       7.20350779      10.90107619      12.12943707  T      -1.79108062       3.89374036      -1.02190894       0.19607685       0.10627336       0.19215198       0.03640715
Au       4.32558431       5.82721362       5.00000000  F       0.00000000       0.00000000       0.00000000      -0.00527206       0.02018459       0.35174203       0.25281888
Au      14.41861438       3.32983636       5.00000000  F       0.00000000       0.00000000       0.00000000      -0.00295461       0.00498414       0.39506265       0.25318259
Au      10.09303006      10.82196816       5.00000000  F       0.00000000       0.00000000       0.00000000       0.00159671      -0.01352373       0.36827314       0.25285963
Au       7.20930719      10.82196816       5.00000000  F       0.00000000       0.00000000       0.00000000      -0.00993140      -0.01100906       0.38371535       0.25317778
Au      20.18606013       8.32459089       5.00000000  F       0.00000000       0.00000000       0.00000000       0.00175997       0.00343252       0.40042351       0.25314469
Au      11.53489150       8.32459089       5.00000000  F       0.00000000       0.00000000       0.00000000       0.00005642       0.00639465       0.39258944       0.25336788
Au       8.65116863       8.32459089       5.00000000  F       0.00000000       0.00000000       0.00000000      -0.00192521       0.00953804       0.39416484       0.25355873
Au       5.76744575       8.32459089       5.00000000  F       0.00000000       0.00000000       0.00000000       0.00074021       0.01095201       0.39460491       0.25346412
Au      18.74419869       5.82721362       5.00000000  F       0.00000000       0.00000000       0.00000000       0.00661539      -0.00355505       0.37930605       0.25313438
Au       4.32558431       0.83245909       5.00000000  F       0.00000000       0.00000000       0.00000000      -0.01641798      -0.00921729       0.34700771       0.25285702
Au       1.44186144       0.83245909       5.00000000  F       0.00000000       0.00000000       0.00000000       0.00214842      -0.00952186       0.38056310       0.25326715
Au       8.65116863       6.65967271       7.35454987  F       0.00000000       0.00000000       0.00000000      -0.00780420       0.29559867      -0.49988622       0.02655470
Au       5.76744575       6.65967271       7.35454987  F       0.00000000       0.00000000       0.00000000       0.11636721       0.12720419      -0.47330480       0.01169158
Au       8.78287734       0.04857315       9.70387848  T       1.73377286      -0.38348707       4.76958182      -0.78233880      -0.36788647       0.21647489       0.03626832
Au      18.87715132      12.43675065      16.84658395  T      -1.05369833      -4.03195514      -6.61807210      -0.93168958      -0.07355351      -0.23270539       0.28263455
Au      17.30233725       6.65967271       7.35454987  F       0.00000000       0.00000000       0.00000000       0.08694031       0.06624033      -0.42118471       0.01140453
Au       0.06304979       0.01850290       9.67135609  T       1.53783407       2.37676137       3.19713176      -0.18356455      -0.18000869       0.17873921       0.02137643
Au      21.62792156      14.15180451       7.35454987  F       0.00000000       0.00000000       0.00000000      -0.05072394       0.06363179      -0.38804435       0.00795127
Au      18.74419869      14.15180451       7.35454987  F       0.00000000       0.00000000       0.00000000       0.05934063      -0.05166176      -0.17670717       0.00941513
Au      15.86047581      14.15180451       7.35454987  F       0.00000000       0.00000000       0.00000000      -0.02971835       0.05456353      -0.19611094       0.01126356
Au      12.97675294      14.15180451       7.35454987  F       0.00000000       0.00000000       0.00000000       0.09180109       0.04446073      -0.31784845       0.00414366
Au      10.09303006      14.15180451       7.35454987  F       0.00000000       0.00000000       0.00000000       0.00224970       0.08903670      -0.62229065       0.00615721
Au      14.41861438      11.65442725       7.35454987  F       0.00000000       0.00000000       0.00000000      -0.06844748      -0.09237353      -0.37356786       0.01124380
Au      11.53489150      11.65442725       7.35454987  F       0.00000000       0.00000000       0.00000000       0.00481462      -0.08851794      -0.50724850       0.00165852
Au       8.65116863      11.65442725       7.35454987  F       0.00000000       0.00000000       0.00000000      -0.14869575       0.06046550      -0.59218321       0.00993982
Au       5.76744575      11.65442725       7.35454987  F       0.00000000       0.00000000       0.00000000       0.03161172       0.02040028      -0.29716113       0.00708269
Au      18.74419869       9.15704998       7.35454987  F       0.00000000       0.00000000       0.00000000      -0.01238715       0.01841049      -0.19109012       0.00592812
Au      15.86047581       9.15704998       7.35454987  F       0.00000000       0.00000000       0.00000000      -0.07066274       0.11624397      -0.28700066       0.01425839
Au      12.97675294       9.15704998       7.35454987  F       0.00000000       0.00000000       0.00000000       0.02642040       0.10334002      -0.26705658       0.01166579
Au      10.09303006       9.15704998       7.35454987  F       0.00000000       0.00000000       0.00000000       0.07101811      -0.07326037      -0.27670860       0.00688761
Au       7.20930719       9.15704998       7.35454987  F       0.00000000       0.00000000       0.00000000      -0.01244028      -0.02638951      -0.23074554       0.00712002
Au       4.32558431       9.15704998       7.35454987  F       0.00000000       0.00000000       0.00000000       0.05321757       0.03749656      -0.23511855       0.01217695
Au       2.88372288       1.66491818       7.35454987  F       0.00000000       0.00000000       0.00000000      -0.19268449      -0.15857425      -0.36657008       0.00745448
Au      -0.00000000       1.66491818       7.35454987  F       0.00000000       0.00000000       0.00000000       0.04754951      -0.00404711      -0.34869439       0.01219454
Au      23.06978300      13.31934543       5.00000000  F       0.00000000       0.00000000       0.00000000       0.00716111      -0.00099048       0.39107925       0.25319345
Au      20.18606013      13.31934543       5.00000000  F       0.00000000       0.00000000       0.00000000      -0.00699485      -0.00483178       0.39505728       0.25333391
Au      17.30233725      13.31934543       5.00000000  F       0.00000000       0.00000000       0.00000000      -0.00101898       0.00484515       0.40286815       0.25310711
Au      14.41861438       6.65967271       7.35454987  F       0.00000000       0.00000000       0.00000000      -0.01935395      -0.01916515      -0.30583190       0.00440277
Au       5.78544537       0.09037544       9.67316164  T       1.30242976      -3.67033931      -0.21366573       0.07619322      -0.66334724       0.20603920       0.02978471
Au      11.53489150       6.65967271       7.35454987  F       0.00000000       0.00000000       0.00000000      -0.10559534       0.04732325      -0.39028782       0.01252009
Au      21.65864712      12.60062683       9.66369708  T       1.07785211      -1.72651588      -4.00375321       0.04769059      -0.38924742       0.02810060       0.03146876
Au       8.70346580       5.18548127       9.59034337  T       3.11091755      -3.02792031       2.82695970      -0.45920438      -0.78747870       0.57061666       0.06893321
Au      11.43596458       5.12072807       9.69488281  T      -1.85584581       0.56726857       1.58706449       0.27527986      -0.46385990       0.09553150       0.03023122
Au       7.14366535       9.23126744      14.29478051  T       1.53242953      -1.04457405      -3.46099874       0.01477615      -0.13561587       0.78241875       0.08756224
Au       4.31151782       9.16564049      14.38692721  T      -5.69819425      -3.20122437       3.15696811       0.12025533       0.25053880       0.50669724       0.04387402
Au      17.49813595       6.64750695      14.39463080  T       1.96663262      -4.31322166       1.09085897      -0.46713899       0.23828984       0.40831761       0.08354485
Au      11.63588731       6.46444310      14.52050477  T       1.77535902       4.08097790      -2.75412773      -0.64739688       0.51013022       0.12022602       0.05193106
Au       8.70599929       6.49102773      14.36802189  T      -2.91204648       2.00754006       0.96219399      -0.17404798       0.69816060       0.53493904       0.07077804
Au       5.62132237       6.60511303      14.60462349  T      -3.16544405      -1.97544818       2.64720708       0.46692017       0.35480944      -0.04968270       0.06002560
Au       2.88894072       6.71501314      14.49446043  T       5.90031334       6.24114691      -0.56787547       0.21774289      -0.03388180       0.31993870       0.06769257
Au      15.88403948       4.36064875      14.52607647  T       0.61053568       2.58071802      -3.34258266       0.22785547      -0.43638879       0.43558709       0.03000675
Au      13.03852205       4.20021822      14.38082670  T       1.23457848      -2.30728078       2.84368405       0.01098264      -0.49717325       0.44946202       0.04338616
Au       9.96740506       4.07850828      14.35942503  T       1.58857876       0.00536487       0.23021421       0.57368253       0.13513735       0.26657551       0.05842339
Au       7.18468555       4.14512568      14.20153186  T      -2.94683433      -2.63547488       0.24108513      -0.09623281       0.08699007       0.49187283       0.04588850
Au       4.41796551       4.12872819      14.17132476  T      -0.23444872      -5.67689227      -0.34833985      -0.47743470       0.25497631       0.98503844       0.09256292
Au       1.51537998       4.29599285      14.38961975  T       2.48607484      -0.07302074      -0.00175882       0.02250692      -0.48419793       0.44801411       0.06784238
Au      14.34377469       1.68384370      14.58440875  T      -2.14142415       3.92316016       3.02789276       0.33331934       0.23151693      -0.11973795       0.03983818
Au      11.55216854       1.72745633      14.57649022  T       0.92846237      -0.93616328      -4.94933509      -0.17809246      -0.02022603       0.01793734       0.03756125
Au       8.57396646       1.76621212      14.61426113  T       2.03395989       5.25784129       0.33845893      -0.09991955      -0.41272886      -0.10839044       0.05760077
Au       5.66967655       1.72231619      14.53627591  T       5.31861044       6.46007300       1.85709095       0.30503077      -0.28365447      -0.12111374       0.05019099
Au       2.85550800       1.67810026      14.38876143  T      -0.03719765      -3.68957018       4.62548888      -0.11032301       0.03425966       0.21294047       0.02472365
Au      -0.06944684       1.75718388      14.52441032  T      -6.06214796      -2.58668778       1.42166471      -0.15146907       0.02111087      -0.01140413       0.02821427
Au      23.12512061      13.38342451      12.06475515  T      -0.92543533      -3.24942411       0.20413449       0.12067505       0.15983005       0.24401148       0.03147081
Au      20.33627034      13.42390427      12.17211714  T       4.05014776      -0.27515444       3.09136224      -0.50395230      -0.25462708      -0.18766676       0.03856241
Au      17.30642206      13.30272636      11.99321233  T      -0.40798824      -1.15948562       1.69196114       0.09135997       0.00540041       0.05024534       0.03605169
Au      13.01083768       9.17184756      14.32805847  T      -4.76068319       0.56427062      -0.00991173      -0.28438115      -0.30248491       0.73144003       0.02857937
Au      14.51048146      13.32330792      11.91967304  T       1.60531563      -2.06887189       2.07361313      -0.41918380      -0.57062736       0.85158641       0.07949222
Au      15.84872663       9.32710101      14.48949122  T      -3.63331893       3.54728077      -3.93566289       0.60117803      -0.75065003       0.07084008       0.11284242
Au       5.68665469      11.75953390      14.67519833  T      -0.50285488       1.26187965      -3.57137338       0.20070685      -0.24425251      -0.31850488       0.06256521
Au       1.44186144       4.16229545       7.35454987  F       0.00000000       0.00000000       0.00000000      -0.11008550      -0.03831000      -0.25148749       0.00623389
Au      14.41861438       1.66491818       7.35454987  F       0.00000000       0.00000000       0.00000000      -0.15018010      -0.09669301      -0.32725779       0.02103367
Au      11.53489150       1.66491818       7.35454987  F       0.00000000       0.00000000       0.00000000       0.07998418      -0.01127577      -0.28320291       0.00522118
Au       8.65116863       1.66491818       7.35454987  F       0.00000000       0.00000000       0.00000000       0.00172533      -0.06461918      -0.60267352       0.01144327
Au       5.76744575       1.66491818       7.35454987  F       0.00000000       0.00000000       0.00000000       0.11673711      -0.16634047      -0.97149571       0.03113483
Au      11.53489150       3.32983636       5.00000000  F       0.00000000       0.00000000       0.00000000       0.00923663       0.00111554       0.38618650       0.25318001
Au       8.65116863       3.32983636       5.00000000  F       0.00000000       0.00000000       0.00000000      -0.00017129       0.00825902       0.35752171       0.25284383
Au       5.76744575       3.32983636       5.00000000  F       0.00000000       0.00000000       0.00000000       0.01494479       0.00922928       0.32175172       0.25231115
Au       2.88372288       3.32983636       5.00000000  F       0.00000000       0.00000000       0.00000000      -0.01971797      -0.00731231       0.35481318       0.25258588
Au      15.86047581       0.83245909       5.00000000  F       0.00000000       0.00000000       0.00000000      -0.00351832      -0.00934052       0.38446853       0.25314916
Au      12.97675294       0.83245909       5.00000000  F       0.00000000       0.00000000       0.00000000      -0.00056148      -0.00184682       0.38352976       0.25344855
Au      10.09303006       0.83245909       5.00000000  F       0.00000000       0.00000000       0.00000000       0.00993067       0.00504407       0.35269226       0.25289470
Au       7.20930719       0.83245909       5.00000000  F       0.00000000       0.00000000       0.00000000       0.00821924      -0.02268208       0.34651067       0.25286006
Au      14.41861438      13.31934543       5.00000000  F       0.00000000       0.00000000       0.00000000       0.00464476       0.00561997       0.39235588       0.25322706
Au      11.53489150      13.31934543       5.00000000  F       0.00000000       0.00000000       0.00000000       0.01113899       0.00250486       0.36184517       0.25278485
Au       8.65116863      13.31934543       5.00000000  F       0.00000000       0.00000000       0.00000000      -0.01478143       0.00681669       0.36357812       0.25308701
Au      21.62792156      10.82196816       5.00000000  F       0.00000000       0.00000000       0.00000000      -0.00306277      -0.00193087       0.40267682       0.25332196
Au      18.74419869      10.82196816       5.00000000  F       0.00000000       0.00000000       0.00000000       0.00425974      -0.00061831       0.39812207       0.25343325
Au      15.86047581      10.82196816       5.00000000  F       0.00000000       0.00000000       0.00000000       0.00285948      -0.00182568       0.38550223       0.25322472
Au      12.97675294      10.82196816       5.00000000  F       0.00000000       0.00000000       0.00000000       0.00415840      -0.00845477       0.37611150       0.25335194
Au      14.48635503      11.52674165      14.45605880  T       0.11244276       0.90281306      -3.75155106      -0.64534337       1.16560318       0.28176491       0.07681566
Au      11.43057691      11.54801355      14.45558396  T       3.60614191       2.86497520       4.82412114       0.44040039       0.39181769       0.41279896       0.06384189
Au       8.76950084      11.65492014      14.47491908  T       4.23533803      -1.25723753       2.96298302      -0.68205624       0.03611629       0.23650609       0.06391776
Au      18.72819470       9.30158179      14.49717737  T      -4.98938906       1.31394703       5.74278669       0.05470336      -0.36254384       0.16638945       0.03156968
Au      14.43946542       6.69060601      14.30037730  T       1.52167854       5.31470140       2.40027754       0.22831527       0.02494980       0.29239480       0.04154282
Au      10.14472767       9.07305716      14.39392187  T      -1.77183005       0.86450841       0.21794623      -0.19908258      -0.08900900       0.30642679       0.03705055
Au       2.83220160      -0.11857430      17.03040846  T      -4.40068516      -0.88155876       0.57658927       0.10476242       0.11447727      -0.44048094       0.27417010
Au       8.79417175      13.32780086      12.10921181  T      -3.46119419      -0.87706972      -0.29405353      -0.64680853       0.33817543       0.19024452       0.04208077
Au       2.96486447       4.80109764      16.91823906  T       3.21531159      -0.76747665      -2.82729390      -0.24405052       0.23189352      -0.75143637       0.45172330
Au      15.86797493       2.58748918      16.90484238  T      -1.70135572       0.55504849       2.17617670      -0.03810833       0.07179378      -0.40438231       0.26541830
Au      12.93939666       2.49357597      16.83319033  T      -2.99984322       2.64120827       4.23532976      -0.11382672       0.24521571      -0.07661917       0.25615891
Au      10.01016028       2.37578425      16.86733852  T      -1.59439830       2.49458550      -1.18393125       0.07436440       0.13016097      -0.29871130       0.29549998